# OOMMF: rectangular mesh v1.0
# Segment count: 1
# Begin: Segment
# Begin: Header
# Desc: Time (s) :  0
# Title: m
# meshtype: rectangular
# meshunit: m
# xbase: 2.5e-09
# ybase: 2.5e-09
# zbase: 2.5e-09
# xstepsize: 5e-09
# ystepsize: 5e-09
# zstepsize: 5e-09
# xmin: 0
# ymin: 0
# zmin: 0
# xmax: 6.000000000000001e-08
# ymax: 6.000000000000001e-08
# zmax: 1e-08
# xnodes: 12
# ynodes: 12
# znodes: 2
# ValueRangeMinMag: 1e-08
# ValueRangeMaxMag: 1
# valueunit: 
# valuemultiplier: 1
# End: Header
# Begin: Data Text
0.9987689 0.038795363 0.030914268 
0.999904 0.007232688 0.011821088 
0.9999625 -0.007856928 0.0036525137 
0.9999428 -0.010662408 0.00096102356 
0.9999698 -0.0077725393 0.00018853744 
0.9999962 -0.0027606478 1.7957209e-05 
0.99999624 0.0027606494 -1.7957633e-05 
0.99996984 0.007772557 -0.00018853605 
0.9999427 0.010662459 -0.0009610197 
0.99996245 0.0078570135 -0.0036525098 
0.999904 -0.0072325678 -0.0118210865 
0.9987689 -0.03879521 -0.030914268 
0.9988169 -0.034737807 0.03403114 
0.99934286 -0.034039017 0.012461119 
0.99957156 -0.029031303 0.0037483077 
0.99977314 -0.021276096 0.0010572425 
0.99991894 -0.012734353 0.00028593783 
0.9999912 -0.004217103 5.7862242e-05 
0.9999911 0.00421711 -5.786471e-05 
0.99991894 0.01273438 -0.00028594 
0.9997731 0.021276152 -0.0010572409 
0.9995715 0.02903139 -0.003748304 
0.9993428 0.034039143 -0.0124611175 
0.9988169 0.03473798 -0.03403115 
0.99228626 -0.11892917 0.034983356 
0.9962655 -0.085275084 0.013542899 
0.99843764 -0.055685297 0.004629958 
0.9994072 -0.034389775 0.0016601437 
0.9998248 -0.018709183 0.00062960235 
0.9999824 -0.0059413305 0.00016903436 
0.9999824 0.0059413463 -0.00016904053 
0.9998248 0.01870921 -0.0006296084 
0.9994072 0.034389835 -0.0016601454 
0.9984377 0.055685394 -0.0046299547 
0.9962654 0.08527522 -0.013542895 
0.9922863 0.11892937 -0.034983363 
0.98297495 -0.1805314 0.034186658 
0.9926904 -0.119702645 0.0153996 
0.9973034 -0.073097795 0.0065427534 
0.9990781 -0.042828426 0.0029421372 
0.9997461 -0.022496132 0.0013216829 
0.99997526 -0.007022413 0.00038520322 
0.99997526 0.0070224307 -0.00038520823 
0.99974614 0.02249616 -0.0013216891 
0.99907815 0.042828478 -0.0029421411 
0.99730337 0.073097885 -0.0065427525 
0.9926904 0.11970279 -0.015399601 
0.9829749 0.1805316 -0.034186665 
0 0 0 
0 0 0 
0 0 0 
0 0 0 
0 0 0 
0 0 0 
0 0 0 
0 0 0 
0 0 0 
0 0 0 
0 0 0 
0 0 0 
0 0 0 
0 0 0 
0 0 0 
0 0 0 
0 0 0 
0 0 0 
0 0 0 
0 0 0 
0 0 0 
0 0 0 
0 0 0 
0 0 0 
0 0 0 
0 0 0 
0 0 0 
0 0 0 
0 0 0 
0 0 0 
0 0 0 
0 0 0 
0 0 0 
0 0 0 
0 0 0 
0 0 0 
0 0 0 
0 0 0 
0 0 0 
0 0 0 
0 0 0 
0 0 0 
0 0 0 
0 0 0 
0 0 0 
0 0 0 
0 0 0 
0 0 0 
-0.98297495 -0.1805314 -0.034186658 
-0.9926904 -0.11970265 -0.015399599 
-0.99730337 -0.07309779 -0.006542753 
-0.99907815 -0.04282842 -0.0029421384 
-0.99974614 -0.022496115 -0.0013216819 
-0.99997526 -0.007022384 -0.00038520317 
-0.9999753 0.007022467 0.00038520742 
-0.99974614 0.022496197 0.0013216878 
-0.99907815 0.04282851 0.0029421418 
-0.9973033 0.073097914 0.006542758 
-0.9926904 0.119702816 0.015399606 
-0.9829749 0.18053164 0.034186665 
-0.99228626 -0.11892917 -0.03498335 
-0.9962655 -0.085275084 -0.013542895 
-0.9984377 -0.0556853 -0.004629957 
-0.9994071 -0.03438977 -0.0016601433 
-0.9998248 -0.01870917 -0.000629601 
-0.9999824 -0.005941304 -0.00016903706 
-0.99998236 0.005941381 0.00016903634 
-0.99982476 0.018709248 0.000629607 
-0.9994071 0.034389865 0.0016601471 
-0.9984377 0.055685423 0.004629959 
-0.9962654 0.08527525 0.013542898 
-0.99228626 0.1189294 0.034983363 
-0.9988169 -0.034737807 -0.03403114 
-0.9993428 -0.034039013 -0.012461117 
-0.9995715 -0.029031303 -0.0037483068 
-0.99977314 -0.021276092 -0.0010572427 
-0.99991894 -0.0127343405 -0.00028593736 
-0.9999912 -0.00421708 -5.7864465e-05 
-0.9999911 0.004217143 5.7861824e-05 
-0.9999189 0.012734416 0.00028594126 
-0.99977314 0.021276187 0.0010572452 
-0.9995715 0.02903142 0.0037483047 
-0.9993429 0.034039177 0.012461114 
-0.99881697 0.034738015 0.034031145 
-0.9987689 0.038795363 -0.030914266 
-0.999904 0.0072326874 -0.011821087 
-0.99996245 -0.007856928 -0.0036525135 
-0.9999428 -0.0106624 -0.00096102315 
-0.9999698 -0.007772524 -0.00018853512 
-0.99999624 -0.0027606268 -1.7957664e-05 
-0.99999624 0.0027606785 1.7953751e-05 
-0.9999698 0.007772593 0.00018853485 
-0.9999427 0.010662491 0.00096102286 
-0.9999625 0.007857037 0.003652509 
-0.99990404 -0.0072325426 0.011821077 
-0.99876887 -0.03879518 0.030914256 
0.99876887 0.038795363 -0.030914268 
0.999904 0.0072326893 -0.011821088 
0.9999625 -0.007856927 -0.0036525147 
0.9999427 -0.010662408 -0.0009610245 
0.9999698 -0.0077725393 -0.00018853508 
0.99999624 -0.0027606487 -1.7956792e-05 
0.99999624 0.0027606476 1.7955661e-05 
0.99996984 0.0077725565 0.00018853701 
0.9999428 0.010662459 0.00096102443 
0.9999625 0.007857013 0.003652512 
0.999904 -0.0072325696 0.011821081 
0.9987689 -0.038795214 0.03091426 
0.9988169 -0.034737807 -0.034031145 
0.99934286 -0.034039017 -0.012461121 
0.99957156 -0.0290313 -0.0037483089 
0.99977314 -0.021276096 -0.0010572444 
0.99991894 -0.012734354 -0.00028593894 
0.9999912 -0.004217104 -5.7864494e-05 
0.9999911 0.004217109 5.78616e-05 
0.9999189 0.012734378 0.00028594266 
0.99977314 0.021276152 0.0010572473 
0.9995715 0.02903139 0.0037483077 
0.9993429 0.034039147 0.012461117 
0.9988169 0.03473798 0.034031145 
0.9922863 -0.11892918 -0.034983363 
0.9962654 -0.08527508 -0.013542902 
0.9984377 -0.0556853 -0.0046299607 
0.9994072 -0.034389775 -0.0016601474 
0.9998248 -0.01870918 -0.0006296045 
0.9999824 -0.00594133 -0.00016903794 
0.99998236 0.0059413463 0.00016903576 
0.99982476 0.018709209 0.00062960724 
0.9994071 0.03438983 0.0016601484 
0.9984377 0.055685394 0.004629959 
0.9962654 0.085275225 0.013542897 
0.99228626 0.118929364 0.034983363 
0.9829749 -0.1805314 -0.03418666 
0.9926904 -0.119702645 -0.015399605 
0.9973033 -0.07309779 -0.0065427567 
0.99907815 -0.04282843 -0.0029421414 
0.9997461 -0.022496132 -0.0013216848 
0.9999753 -0.0070224134 -0.00038520605 
0.9999754 0.007022432 0.00038520523 
0.999746 0.022496158 0.0013216888 
0.99907815 0.042828478 0.0029421428 
0.9973033 0.073097885 0.006542756 
0.9926904 0.1197028 0.015399608 
0.98297495 0.18053162 0.034186676 
0 0 0 
0 0 0 
0 0 0 
0 0 0 
0 0 0 
0 0 0 
0 0 0 
0 0 0 
0 0 0 
0 0 0 
0 0 0 
0 0 0 
0 0 0 
0 0 0 
0 0 0 
0 0 0 
0 0 0 
0 0 0 
0 0 0 
0 0 0 
0 0 0 
0 0 0 
0 0 0 
0 0 0 
0 0 0 
0 0 0 
0 0 0 
0 0 0 
0 0 0 
0 0 0 
0 0 0 
0 0 0 
0 0 0 
0 0 0 
0 0 0 
0 0 0 
0 0 0 
0 0 0 
0 0 0 
0 0 0 
0 0 0 
0 0 0 
0 0 0 
0 0 0 
0 0 0 
0 0 0 
0 0 0 
0 0 0 
-0.9829749 -0.1805314 0.03418666 
-0.9926904 -0.11970265 0.015399605 
-0.9973033 -0.07309779 0.006542754 
-0.9990782 -0.042828422 0.0029421428 
-0.999746 -0.022496114 0.001321686 
-0.9999753 -0.007022386 0.0003852051 
-0.9999754 0.0070224665 -0.00038520683 
-0.999746 0.022496197 -0.0013216874 
-0.99907815 0.04282851 -0.0029421418 
-0.99730337 0.073097914 -0.0065427567 
-0.9926903 0.11970281 -0.015399604 
-0.9829749 0.18053164 -0.03418667 
-0.99228626 -0.11892917 0.034983363 
-0.9962654 -0.08527508 0.0135429 
-0.9984377 -0.0556853 0.0046299575 
-0.9994072 -0.034389775 0.0016601491 
-0.99982476 -0.018709168 0.000629608 
-0.9999824 -0.005941305 0.00016903684 
-0.99998236 0.0059413803 -0.00016903861 
-0.9998248 0.018709248 -0.0006296083 
-0.9994072 0.03438987 -0.0016601466 
-0.99843764 0.05568542 -0.004629957 
-0.9962655 0.085275255 -0.013542897 
-0.9922862 0.118929386 -0.03498336 
-0.99881685 -0.034737807 0.03403115 
-0.99934286 -0.034039017 0.012461123 
-0.9995715 -0.029031303 0.0037483098 
-0.99977314 -0.021276094 0.001057249 
-0.99991894 -0.012734341 0.00028594333 
-0.9999911 -0.0042170794 5.7863625e-05 
-0.9999911 0.004217143 -5.7865156e-05 
-0.9999189 0.012734416 -0.00028594144 
-0.9997731 0.021276185 -0.0010572422 
-0.9995715 0.02903142 -0.003748304 
-0.9993428 0.03403917 -0.012461116 
-0.99881697 0.03473801 -0.03403115 
-0.99876887 0.03879536 0.030914268 
-0.999904 0.007232687 0.011821091 
-0.9999625 -0.007856928 0.0036525175 
-0.9999428 -0.010662402 0.00096102874 
-0.99996984 -0.0077725253 0.00018853982 
-0.99999624 -0.0027606268 1.795779e-05 
-0.99999624 0.0027606776 -1.7957957e-05 
-0.99996984 0.0077725914 -0.00018853742 
-0.9999428 0.0106624905 -0.00096101925 
-0.99996245 0.007857037 -0.0036525067 
-0.99990404 -0.007232545 -0.011821083 
-0.9987689 -0.03879519 -0.030914268 
# End: Data Text
# End: Segment
