# OOMMF: rectangular mesh v1.0
# Segment count: 1
# Begin: Segment
# Begin: Header
# Desc: Time (s) :  0
# Title: B_demag
# meshtype: rectangular
# meshunit: m
# xbase: 2.5e-09
# ybase: 2.5e-09
# zbase: 2.5e-09
# xstepsize: 5e-09
# ystepsize: 5e-09
# zstepsize: 5e-09
# xmin: 0
# ymin: 0
# zmin: 0
# xmax: 6.000000000000001e-08
# ymax: 6.000000000000001e-08
# zmax: 1e-08
# xnodes: 12
# ynodes: 12
# znodes: 2
# ValueRangeMinMag: 1e-08
# ValueRangeMaxMag: 1
# valueunit: T
# valuemultiplier: 1
# End: Header
# Begin: Data Text
-0.46818474 0.16205727 0.11895105 
-0.1841068 0.041159928 0.018494615 
-0.096909106 0.016008155 0.0026124949 
-0.05939587 0.009067016 -0.00021701911 
-0.041923977 0.005194761 -0.0005603223 
-0.034821156 0.0017197905 -0.00023832684 
-0.034821235 -0.0017198306 0.00023832591 
-0.04192391 -0.005194813 0.0005603209 
-0.059395853 -0.009067051 0.00021702494 
-0.096909024 -0.016008183 -0.002612479 
-0.18410683 -0.04115997 -0.018494597 
-0.46818474 -0.16205733 -0.11895104 
-0.5519426 0.0366301 0.13820723 
-0.2182598 0.017293537 0.01714393 
-0.1066219 0.007818678 0.0007764017 
-0.06320541 0.0042916182 -0.00060207164 
-0.04452603 0.002348188 -0.000385846 
-0.037190713 0.0007587746 -0.00011854526 
-0.037190843 -0.00075880217 0.000118544325 
-0.04452587 -0.0023482079 0.00038583018 
-0.06320541 -0.0042916345 0.0006020805 
-0.10662181 -0.007818719 -0.00077637844 
-0.21825981 -0.017293606 -0.017143913 
-0.55194265 -0.036630146 -0.13820724 
-0.5412253 -0.03179537 0.14068751 
-0.21737202 -0.0029031318 0.020620022 
-0.10849903 0.0045424337 0.0034055617 
-0.065161094 0.0038838084 0.0010935972 
-0.04610122 0.002113129 0.0005549621 
-0.03851976 0.0006453544 0.00018301047 
-0.038519908 -0.00064536 -0.0001830319 
-0.04610104 -0.0021131663 -0.00055499095 
-0.06516116 -0.0038838624 -0.0010936013 
-0.10849897 -0.004542494 -0.0034055412 
-0.21737203 0.0029030517 -0.020619988 
-0.54122514 0.03179531 -0.14068751 
-0.4341327 -0.13614014 0.1340878 
-0.18392581 -0.012140583 0.03606447 
-0.103946745 0.0059865955 0.015999595 
-0.06634237 0.00546984 0.00869119 
-0.047629185 0.0029226989 0.0044816043 
-0.03974422 0.0008779876 0.0013911277 
-0.03974449 -0.00087801926 -0.0013911454 
-0.04762903 -0.0029227473 -0.004481631 
-0.066342436 -0.0054698978 -0.008691196 
-0.10394664 -0.0059866663 -0.015999591 
-0.18392594 0.012140498 -0.036064472 
-0.4341326 0.13614005 -0.13408783 
-0.08216727 -0.33940172 0.07154311 
-0.1002256 -0.18411922 0.03895794 
-0.07148029 -0.10653139 0.021218974 
-0.049302492 -0.06174847 0.01169944 
-0.036200263 -0.0323926 0.005925215 
-0.030312167 -0.010109387 0.001816449 
-0.0303122 0.010109397 -0.0018164646 
-0.036200237 0.032392632 -0.005925225 
-0.049302462 0.061748497 -0.011699444 
-0.07148032 0.10653144 -0.021218989 
-0.10022558 0.18411927 -0.038957957 
-0.08216727 0.3394018 -0.07154314 
-0.010632474 -0.19275816 0.014059273 
-0.024769029 -0.1475276 0.009736761 
-0.021573432 -0.09744489 0.00563394 
-0.015929434 -0.059448108 0.0030993493 
-0.011989256 -0.03175963 0.0015500057 
-0.0101122325 -0.009961156 0.0004708244 
-0.0101122 0.009961173 -0.0004708276 
-0.011989277 0.03175964 -0.001550009 
-0.015929349 0.05944811 -0.0030993524 
-0.021573499 0.09744494 -0.0056339507 
-0.024768965 0.1475276 -0.0097367745 
-0.010632532 0.19275825 -0.014059276 
0.010632526 -0.19275817 -0.014059259 
0.02476901 -0.1475276 -0.009736761 
0.02157345 -0.097444884 -0.0056339474 
0.01592937 -0.059448116 -0.0030993603 
0.011989271 -0.031759616 -0.0015500016 
0.010112222 -0.009961161 -0.00047081982 
0.010112232 0.00996119 0.00047082664 
0.011989282 0.031759642 0.0015500007 
0.01592942 0.059448138 0.003099353 
0.021573413 0.09744493 0.0056339465 
0.024769047 0.14752764 0.00973677 
0.010632514 0.19275825 0.014059273 
0.08216728 -0.33940172 -0.071543105 
0.10022561 -0.18411924 -0.038957935 
0.071480304 -0.10653139 -0.02121897 
0.049302444 -0.06174849 -0.011699446 
0.036200278 -0.032392565 -0.005925201 
0.030312158 -0.010109379 -0.0018164492 
0.030312248 0.010109434 0.0018164641 
0.036200203 0.032392655 0.005925215 
0.04930255 0.061748512 0.011699446 
0.07148023 0.106531456 0.021218996 
0.10022569 0.18411928 0.03895797 
0.08216724 0.33940184 0.07154314 
0.43413264 -0.13614014 -0.1340878 
0.18392594 -0.012140628 -0.036064483 
0.10394667 0.005986586 -0.015999595 
0.06634239 0.005469827 -0.008691197 
0.04762918 0.0029226933 -0.004481596 
0.03974426 0.0008780081 -0.0013911352 
0.039744463 -0.0008779969 0.0013911417 
0.047629043 -0.002922725 0.0044816122 
0.066342466 -0.005469909 0.0086911805 
0.10394665 -0.005986672 0.015999613 
0.18392593 0.012140468 0.03606449 
0.43413267 0.13614006 0.13408785 
0.54122514 -0.031795353 -0.14068751 
0.21737204 -0.0029031262 -0.020620005 
0.108499005 0.004542417 -0.0034055505 
0.06516107 0.0038837958 -0.001093599 
0.046101198 0.0021131127 -0.00055495277 
0.038519852 0.0006453702 -0.0001830291 
0.038519837 -0.0006453395 0.00018301513 
0.04610105 -0.0021131565 0.0005549826 
0.06516113 -0.0038838657 0.0010936006 
0.10849894 -0.0045424914 0.0034055365 
0.21737209 0.0029030629 0.020620009 
0.5412252 0.0317953 0.14068751 
0.5519425 0.036630094 -0.13820723 
0.21825975 0.017293563 -0.01714392 
0.10662192 0.007818667 -0.00077639613 
0.06320536 0.0042916015 0.00060205813 
0.044526037 0.0023481837 0.00038583856 
0.037190795 0.0007587709 0.00011853408 
0.037190817 -0.0007587997 -0.00011854526 
0.044525836 -0.0023481902 -0.0003858162 
0.06320544 -0.00429164 -0.00060206186 
0.106621854 -0.007818724 0.0007763766 
0.21825978 -0.017293597 0.017143883 
0.5519425 -0.03663015 0.13820723 
0.46818468 0.16205727 -0.118951045 
0.18410692 0.041159935 -0.018494615 
0.09690902 0.016008163 -0.0026124967 
0.059395857 0.00906702 0.00021700119 
0.04192398 0.0051947786 0.0005603293 
0.034821168 0.0017197765 0.00023833103 
0.034821253 -0.0017198268 -0.00023833383 
0.041923855 -0.005194799 -0.0005603279 
0.059395805 -0.0090670325 -0.00021701586 
0.09690901 -0.016008198 0.0026124655 
0.18410689 -0.041159973 0.018494558 
0.46818465 -0.16205736 0.11895104 
-0.4681847 0.16205725 -0.11895105 
-0.18410681 0.041159935 -0.018494617 
-0.096909136 0.016008165 -0.0026124897 
-0.059395812 0.009067027 0.00021700957 
-0.041923933 0.0051947692 0.0005603414 
-0.034821227 0.0017197868 0.00023832964 
-0.034821145 -0.0017198334 -0.00023833476 
-0.04192394 -0.0051948056 -0.0005603349 
-0.059395805 -0.009067034 -0.00021702587 
-0.096909076 -0.01600818 0.0026124814 
-0.18410686 -0.041159973 0.01849458 
-0.46818474 -0.16205734 0.11895103 
-0.5519426 0.0366301 -0.13820723 
-0.21825978 0.017293539 -0.017143935 
-0.10662192 0.00781869 -0.00077639055 
-0.06320537 0.0042916196 0.00060207164 
-0.04452602 0.0023481771 0.0003858488 
-0.03719076 0.0007587652 0.00011854153 
-0.037190806 -0.00075881043 -0.00011854991 
-0.04452591 -0.0023482107 -0.0003858218 
-0.063205376 -0.004291636 -0.0006020679 
-0.10662183 -0.007818724 0.0007763952 
-0.21825989 -0.017293602 0.017143898 
-0.5519426 -0.036630157 0.13820726 
-0.5412253 -0.031795368 -0.1406875 
-0.21737197 -0.0029031392 -0.020620024 
-0.10849903 0.0045424355 -0.0034055514 
-0.06516104 0.003883826 -0.0010935978 
-0.04610125 0.0021131285 -0.00055495556 
-0.03851976 0.00064536976 -0.00018301327 
-0.03851991 -0.0006453637 0.00018302165 
-0.046101034 -0.002113171 0.0005549826 
-0.06516115 -0.0038838605 0.0010936025 
-0.10849896 -0.0045425035 0.003405543 
-0.21737206 0.0029030703 0.020619992 
-0.5412252 0.03179532 0.14068751 
-0.4341327 -0.13614014 -0.1340878 
-0.18392581 -0.012140591 -0.036064483 
-0.1039467 0.005986586 -0.015999587 
-0.066342354 0.005469838 -0.008691183 
-0.047629192 0.002922697 -0.00448159 
-0.039744217 0.00087800063 -0.0013911286 
-0.039744534 -0.00087800995 0.0013911342 
-0.047628984 -0.0029227324 0.004481624 
-0.066342436 -0.005469896 0.008691194 
-0.103946656 -0.0059866607 0.015999591 
-0.1839259 0.012140505 0.036064483 
-0.43413267 0.13614005 0.13408785 
-0.08216725 -0.33940166 -0.07154311 
-0.100225575 -0.18411922 -0.038957942 
-0.0714803 -0.10653137 -0.02121897 
-0.04930246 -0.061748505 -0.011699437 
-0.036200263 -0.032392602 -0.0059252037 
-0.030312136 -0.010109417 -0.0018164446 
-0.030312251 0.010109401 0.0018164667 
-0.03620022 0.032392636 0.005925214 
-0.049302477 0.061748512 0.01169944 
-0.07148031 0.106531434 0.021218987 
-0.100225575 0.18411927 0.038957957 
-0.08216729 0.3394018 0.071543135 
-0.010632487 -0.19275814 -0.014059264 
-0.024768973 -0.1475276 -0.009736763 
-0.021573473 -0.09744489 -0.005633942 
-0.015929399 -0.05944812 -0.0030993577 
-0.011989274 -0.031759623 -0.0015500032 
-0.010112215 -0.009961164 -0.00047082218 
-0.010112232 0.009961173 0.00047083257 
-0.011989269 0.031759642 0.0015499988 
-0.01592936 0.059448123 0.003099346 
-0.021573503 0.09744494 0.0056339484 
-0.024768984 0.14752762 0.009736763 
-0.010632534 0.19275823 0.014059269 
0.010632529 -0.19275817 0.014059273 
0.02476902 -0.1475276 0.009736768 
0.021573434 -0.097444884 0.0056339414 
0.01592939 -0.059448116 0.003099359 
0.011989271 -0.031759612 0.0015500054 
0.010112258 -0.009961162 0.00047082655 
0.010112176 0.009961188 -0.0004708219 
0.011989291 0.031759646 -0.0015500078 
0.015929412 0.059448138 -0.0030993582 
0.021573424 0.09744493 -0.0056339432 
0.024769025 0.14752764 -0.009736774 
0.01063251 0.19275825 -0.014059287 
0.08216731 -0.33940172 0.07154313 
0.10022561 -0.18411925 0.038957946 
0.07148028 -0.10653139 0.021218963 
0.049302448 -0.061748505 0.011699444 
0.03620026 -0.032392576 0.0059252046 
0.030312173 -0.0101094 0.001816453 
0.03031222 0.010109447 -0.0018164527 
0.036200218 0.032392673 -0.005925223 
0.04930254 0.06174851 -0.011699453 
0.07148026 0.106531456 -0.021218996 
0.10022567 0.18411931 -0.03895797 
0.082167245 0.33940184 -0.07154316 
0.43413264 -0.13614014 0.1340878 
0.18392596 -0.012140624 0.036064483 
0.103946626 0.0059865713 0.015999587 
0.06634248 0.005469827 0.008691195 
0.04762906 0.002922697 0.0044815857 
0.039744355 0.0008780025 0.001391123 
0.03974445 -0.00087800995 -0.0013911235 
0.04762896 -0.0029227156 -0.004481611 
0.066342466 -0.0054699015 -0.008691194 
0.103946686 -0.005986672 -0.015999611 
0.1839259 0.012140483 -0.03606449 
0.43413267 0.13614003 -0.13408783 
0.54122514 -0.03179536 0.14068753 
0.21737202 -0.0029031336 0.020620003 
0.108499005 0.004542415 0.0034055319 
0.06516112 0.0038837902 0.0010936125 
0.046101116 0.002113115 0.00055497885 
0.038519837 0.00064537814 0.0001830142 
0.038519863 -0.00064535765 -0.000183017 
0.046101052 -0.002113151 -0.0005549891 
0.065161146 -0.0038838545 -0.0010936023 
0.10849892 -0.00454248 -0.0034055375 
0.21737213 0.0029030498 -0.020619994 
0.54122514 0.031795297 -0.14068751 
0.5519426 0.03663009 0.13820723 
0.21825977 0.017293565 0.017143926 
0.1066219 0.007818674 0.0007763952 
0.06320539 0.0042915978 -0.000602053 
0.044526037 0.0023481753 -0.00038582738 
0.03719075 0.0007587814 -0.000118543394 
0.037190862 -0.00075879804 0.00011853501 
0.04452582 -0.0023481888 0.00038582645 
0.06320545 -0.004291633 0.00060207583 
0.10662188 -0.007818714 -0.0007763617 
0.2182597 -0.017293606 -0.017143894 
0.5519427 -0.03663016 -0.13820724 
0.46818465 0.16205727 0.11895104 
0.18410684 0.041159943 0.018494613 
0.096909046 0.016008157 0.0026124972 
0.059395783 0.009067029 -0.00021700142 
0.04192407 0.0051947637 -0.0005603242 
0.034821123 0.001719784 -0.00023832405 
0.03482125 -0.0017198417 0.00023832498 
0.04192388 -0.0051948046 0.0005603237 
0.059395842 -0.009067042 0.00021703495 
0.09690898 -0.016008198 -0.0026124502 
0.18410681 -0.04115997 -0.01849457 
0.46818474 -0.16205734 -0.11895104 
# End: Data Text
# End: Segment
