# ODT 1.0
# Table Start
# Title: mmArchive Data Table, Sat Oct 19 01:27:58 BST 2019
# Columns: {Oxs_RungeKuttaEvolve:evolve:Total energy} {Oxs_RungeKuttaEvolve:evolve:Energy calc count} {Oxs_RungeKuttaEvolve:evolve:Max dm/dt} Oxs_RungeKuttaEvolve:evolve:dE/dt {Oxs_RungeKuttaEvolve:evolve:Delta E} Oxs_CubicAnisotropy::Energy Oxs_UniformExchange::Energy {Oxs_UniformExchange::Max Spin Ang} {Oxs_UniformExchange::Stage Max Spin Ang} {Oxs_UniformExchange::Run Max Spin Ang} Oxs_UZeeman::Energy  Oxs_UZeeman::B       Oxs_UZeeman::Bx      Oxs_UZeeman::By      Oxs_UZeeman::Bz      Oxs_Demag::Energy    Oxs_TimeDriver::Iteration {Oxs_TimeDriver::Stage iteration} Oxs_TimeDriver::Stage Oxs_TimeDriver::mx   Oxs_TimeDriver::my   Oxs_TimeDriver::mz   {Oxs_TimeDriver::Last time step} {Oxs_TimeDriver::Simulation time}
# Units:                       J                                            {}                                        deg/ns                                 J/s                                  J                                J                           J                              deg                                    deg                                      deg                            J                 mT                   mT                   mT                   mT                     J                       {}                            {}                          {}                   {}                   {}                   {}                          s                                 s                
                       4.3919651249682769e-17                          1                                           4525.4778574346119                  -4.6748386142741307e-07                 0                                1.2475633247672371e-19         0                               0                                      0                                        0                              0                    0                    0                    0                    0                    4.3794894917206046e-17    0                             0                           0                     0.0099990001499748547  0.99990001499750891  0.0099990001499748547        0                                0                         
                       4.3918670250411611e-17                          7                                           4524.3485752075012                  -4.6714574364936866e-07                -9.8099927115212643e-22              1.2473812515705058e-19         3.3131101479264009e-25             0.0060515161101494823                    0.0060515161101494823                      0.0060515161101494823            0                    0                    0                    0                    0                    4.3793931793943543e-17    1                             1                           0                     0.010003591361492191  0.99990002959245206  0.0099929278737728583        2.099225827476555e-15              2.099225827476555e-15       
                       4.3914753345437278e-17                          13                                          4519.8243510274788                  -4.6579509744408964e-07                -3.9169049743330768e-21              1.2467018095723755e-19         8.2668743626110012e-24             0.030219275481049159                    0.030219275481049159                      0.030219275481049159            0                    0                    0                    0                    0                    4.379007489760568e-17    2                             2                           0                     0.010021912233210551  0.99990008405469888  0.0099686438886540732        8.39690330990622e-15              1.0496129137382775e-14       
                       4.3899198769470312e-17                          19                                          4501.6170217227955                  -4.6042178841250453e-07                -1.5554575966968013e-20              1.2447594234146988e-19         1.447078717686213e-22             0.12627386191354076                    0.12627386191354076                      0.12627386191354076            0                    0                    0                    0                    0                    4.377457811925707e-17    3                             3                           0                     0.010094493204728954  0.99990023972185738  0.0098715912003623993        3.358761323962488e-14              4.4083742377007653e-14       
                       4.383876145268079e-17                          25                                          4427.2146159077065                  -4.3940147591144004e-07                -6.0437316789517361e-20              1.2489993087706674e-19         2.2980222216992277e-21             0.50042686810646075                    0.50042686810646075                      0.50042686810646075            0                    0                    0                    0                    0                    4.3711563499582023e-17    4                             4                           0                     0.010373646513428746  0.99989989916165611  0.0094847969999546974        1.3435045295849952e-13              1.7843419533550717e-13       
                       4.3623697611252253e-17                          31                                          4115.671792724821                   -3.6306096805800083e-07                -2.1506384142854011e-19              1.4334626829368727e-19         3.2505422842270379e-20             1.8291557182755196                     1.8291557182755196                       1.8291557182755196             0                    0                    0                    0                    0                    4.3447845920116293e-17    5                             5                           0                     0.011316210262169344  0.99988507568723628  0.0079654243682009615        5.3740181183399808e-13              7.1583600716950528e-13       
                       4.3285844373281096e-17                          37                                          3491.5170114868342                  -2.4174608482573032e-07                -3.3785323797115834e-19              2.4076520574641297e-19         1.6292927318353976e-19             4.199101510018977                      4.199101510018977                        4.199101510018977              0                    0                    0                    0                    0                    4.2882149894351139e-17    6                             6                           0                     0.01246035655929314  0.99980619291593575  0.0049668936512508224        1.133327136866855e-12              1.8491631440363602e-12       
                       4.3034538492790912e-17                          43                                          2957.6693775113154                  -1.5923467128591487e-07                -2.5130588049018165e-19              3.8783136558099281e-19         3.3434398718171842e-19             6.3876306024328278                     6.3876306024328278                       6.3876306024328278             0                    0                    0                    0                    0                    4.2312363140028198e-17    7                             7                           0                     0.012581631820676334  0.99968529189202571  0.0020371005707902124        1.2796971701808832e-12              3.1288603142172433e-12       
                       4.28298444892207e-17                          49                                          2562.5195207310608                  -1.1037963264376722e-07                -2.046940035702051e-19              5.5847198264685625e-19         4.9895367942517392e-19             7.8706797877050514                     7.8706797877050514                       7.8706797877050514             0                    0                    0                    0                    0                    4.1772418827148675e-17    8                             8                           0                     0.011474479285030082  0.99954198419351492 -0.00074424952391279736        1.5584284623629144e-12              4.6872887765801573e-12       
                       4.2652350621612554e-17                          55                                          2237.7264252904774                  -8.6517594583032422e-08                -1.7749386760815277e-19              7.179225742063537e-19         6.0415092126957784e-19             8.4623527104198573                     8.4623527104198573                       8.4623527104198573             0                    0                    0                    0                    0                    4.1330277126136622e-17    9                             9                           0                     0.0090891067959952797  0.99940462934899699 -0.0028631506674670505        1.8324062405646813e-12              6.519695017144839e-12       
                       4.256484467290972e-17                          67                                          2087.9963273417566                  -7.7513238641224485e-08                -8.7505948702828884e-20              7.9249848416949871e-19         6.3004835611206645e-19             8.490374360011808                      8.490374360011808                        8.490374360011808              0                    0                    0                    0                    0                    4.1142297832628156e-17    10                            10                          0                     0.0074461068803945915  0.99933916965968161 -0.0035638209228283364        1.0679706379839872e-12              7.5876656551288264e-12       
                       4.2490804001075707e-17                          73                                          1951.0714552043482                  -6.9164170268022841e-08                -7.4040671834013064e-20              8.541957069162852e-19         6.3867574460105774e-19             8.3935703474686516                     8.490374360011808                        8.490374360011808              0                    0                    0                    0                    0                    4.0997932549558365e-17    11                            11                          0                     0.0058631891766755088  0.99928442561477948 -0.003911863834367731        1.0091822915973455e-12              8.5968479467261719e-12       
                       4.2417175461164656e-17                          79                                          1782.7384578266556                  -5.9176802954781571e-08                -7.3628539911048971e-20              9.1676837023867193e-19         6.3671965333772779e-19             8.1856385583788516                     8.490374360011808                        8.490374360011808              0                    0                    0                    0                    0                    4.0863687437588254e-17    12                            12                          0                     0.0041346958678940759  0.99922831341788887 -0.0039956907198629987        1.1466728150205197e-12              9.7435207617466918e-12       
                       4.2345037538410581e-17                          85                                          1570.0603499991644                  -4.7209668620476725e-08                -7.2137922754080658e-20              9.8282596782301146e-19         6.258314996212889e-19             7.852654171909804                      8.490374360011808                        8.490374360011808              0                    0                    0                    0                    0                    4.073638007096628e-17    13                            13                          0                     0.0023014473082311046  0.9991683077201392  -0.0037613461102940422        1.3569953291457031e-12              1.1100516090892396e-11       
                       4.2296348386506357e-17                          97                                          1386.7038254079246                  -3.7834274407031056e-08                -4.8689151904219152e-20              1.0326883865505462e-18         6.1378043054324173e-19             7.531421235197282                      8.490374360011808                        8.490374360011808              0                    0                    0                    0                    0                    4.0649879569412572e-17    14                            14                          0                     0.00099693443778636499  0.99912239494731447 -0.0033637936029450853        1.1474687213597318e-12              1.2247984812252128e-11       
                       4.2260093311558458e-17                          103                                         1218.9039464850052                  -3.0267674926299494e-08                -3.6255074947901723e-20              1.0741890162611304e-18         6.0245044467465045e-19             7.2242472075345665                     8.490374360011808                        8.490374360011808              0                    0                    0                    0                    0                    4.0583453850622683e-17    15                            15                          0                     1.2244580943285516e-05  0.99908373336540679 -0.0028915943149021195        1.0680697379708893e-12              1.3316054550223017e-11       
                       4.223092679785981e-17                          109                                         1056.4625182298803                  -2.3957872312892148e-08                -2.9166513698644673e-20              1.1111968159235878e-18         5.9215077902014658e-19             6.9250630722014508                     8.490374360011808                        8.490374360011808              0                    0                    0                    0                    0                    4.0527579202916077e-17    16                            16                          0                    -0.00075334790760555952  0.99904890420574832 -0.0023631114317689758        1.080295463884051e-12              1.4396350014107067e-11       
                       4.2206027755305692e-17                          115                                         894.62066043460425                  -1.8567447220197372e-08                -2.4899042554117457e-20              1.1457051835482699e-18         5.8317582862189309e-19             6.6316086081319661                     8.490374360011808                        8.490374360011808              0                    0                    0                    0                    0                    4.047714674313553e-17    17                            17                          0                    -0.0013349895478026548  0.99901613533043365 -0.0017762839553967518        1.1777677067067362e-12              1.5574117720813803e-11       
                       4.2185515940762816e-17                          121                                         743.39456576114162                  -1.4252869282088006e-08                -2.0511814542880147e-20              1.175794029747775e-18         5.7676937208285671e-19             6.3744168506830485                     8.490374360011808                        8.490374360011808              0                    0                    0                    0                    0                    4.0432952538932181e-17    18                            18                          0                    -0.0016936171886161287  0.99898735234469527 -0.0011823768590735965        1.2584088281620158e-12              1.6832526548975819e-11       
                       4.2170162780232543e-17                          127                                         642.58309954127208                  -1.1162295421771037e-08                -1.5353160530276205e-20              1.1982760703765772e-18         5.7377771705593847e-19             6.1927290064764549                     8.490374360011808                        8.490374360011808              0                    0                    0                    0                    0                    4.0398108992800024e-17    19                            19                          0                    -0.0018221534841195608  0.99896574042596964 -0.00067418116921392417        1.2154948415368993e-12              1.804802139051272e-11       
                       4.2159243213779557e-17                          133                                         587.48172776279262                  -9.0505357864354923e-09                -1.0919566452986515e-20              1.2130112115082988e-18         5.7344165840843581e-19             6.1491623341089374                     8.490374360011808                        8.490374360011808              0                    0                    0                    0                    0                    4.0372790343862823e-17    20                            20                          0                    -0.001792784514783692  0.99895154758475235 -0.00029150166748119396        1.0852534364133571e-12              1.9133274826926076e-11       
                       4.2150937909825568e-17                          139                                         545.45294814638919                  -7.495995125667947e-09                -8.3053039539846775e-21              1.2223137297266902e-18         5.7462809358258933e-19             6.1013982113947325                     8.490374360011808                        8.490374360011808              0                    0                    0                    0                    0                    4.0353996086516288e-17    21                            21                          0                    -0.0016734598134416727  0.9989425977850459  -2.7309158238766163e-06        1.007382366516879e-12              2.0140657193442955e-11       
                       4.2143706817465709e-17                          145                                         500.98070450696235                  -6.1861206976562428e-09                -7.2310923598561215e-21              1.2277109932235472e-18         5.7683881929643354e-19             6.0453206548665506                     8.490374360011808                        8.490374360011808              0                    0                    0                    0                    0                    4.0339157004945732e-17    22                            22                          0                    -0.0014801880643659044  0.99893744235959003  0.0002310968285438882        1.0609026565498624e-12              2.1201559849992816e-11       
                       4.2136998392090415e-17                          151                                         450.48420829059756                  -5.0254322576231551e-09                -6.7084253752974044e-21              1.228607074978834e-18         5.7971861583665012e-19             6.0407401014519495                     8.490374360011808                        8.490374360011808              0                    0                    0                    0                    0                    4.0328672701274925e-17    23                            23                          0                    -0.0012103189598190031  0.99893667280307863  0.00041283602959691365        1.202303732928307e-12              2.2403863582921123e-11       
                       4.2131148583996582e-17                          157                                         400.56199170485115                  -4.0904964438022649e-09                -5.8498080938362585e-21              1.2237618299318034e-18         5.8228286548270042e-19             6.087323489507547                      8.490374360011808                        8.490374360011808              0                    0                    0                    0                    0                    4.032510388858208e-17    24                            24                          0                    -0.00089687371801381146  0.998941472526647    0.00051974599934755095        1.2906865931008125e-12              2.3694550176021935e-11       
                       4.2126650626757051e-17                          163                                         361.51773831943382                  -3.4541141272046769e-09                -4.4979572395245204e-21              1.2143066114530664e-18         5.8342801295143439e-19             6.1405257028271549                     8.490374360011808                        8.490374360011808              0                    0                    0                    0                    0                    4.0328916002352549e-17    25                            25                          0                    -0.0006118445624759978  0.99895069357030197  0.00055052484222353445        1.1987780935201839e-12              2.4893328269542117e-11       
                       4.2123328297889442e-17                          169                                         336.13565839709929                  -3.0447101833247568e-09                -3.3223288676098022e-21              1.2027994234930862e-18         5.8309475532800484e-19             6.1864213639586483                     8.490374360011808                        8.490374360011808              0                    0                    0                    0                    0                    4.0337434119068352e-17    26                            26                          0                    -0.00038783014908179918  0.99896182989196847  0.00053537586025533316        1.0260291364275352e-12              2.5919357405969653e-11       
                       4.2120550494750424e-17                          175                                         326.8611985962367                   -2.7529905065048931e-09                -2.7778031390203689e-21              1.1895008295070201e-18         5.8154498341040436e-19             6.2258217469715298                     8.490374360011808                        8.490374360011808              0                    0                    0                    0                    0                    4.0349504681832997e-17    27                            27                          0                    -0.00020275828914032137  0.99897462092183664  0.00049496246811539339        9.6048858691751932e-13              2.6879845992887171e-11       
                       4.2117758190692994e-17                          181                                         318.70600182808977                  -2.5064090814486028e-09                -2.7923040574299379e-21              1.1723063339007363e-18         5.7840545455310768e-19             6.2630559058765467                     8.490374360011808                        8.490374360011808              0                    0                    0                    0                    0                    4.0367046402239153e-17    28                            28                          0                    -3.0762816651199831e-05  0.99899105682011247  0.00042932239995004519        1.0641573932858415e-12              2.7944003386173014e-11       
                       4.2114766987186849e-17                          187                                         310.93653131907246                  -2.2853970547044937e-09                -2.9912035061417521e-21              1.1493887325541299e-18         5.7292154910295168e-19             6.2969546300682833                     8.490374360011808                        8.490374360011808              0                    0                    0                    0                    0                    4.0392456705529767e-17    29                            29                          0                     0.00012374197620406902  0.99901280781721757  0.00033556860812616998        1.2512277167860565e-12              2.9195231102959067e-11       
                       4.2111860494979286e-17                          193                                         303.16439403701952                  -2.1003338536623723e-09                -2.9064922075697873e-21              1.1226806488480338e-18         5.6529739478564938e-19             6.3214593636349337                     8.490374360011808                        8.490374360011808              0                    0                    0                    0                    0                    4.0423882451345601e-17    30                            30                          0                     0.00023196957101475626  0.99903795705291287  0.00022926102642800849        1.3291757479957844e-12              3.0524406850954855e-11       
                       4.2109496156544807e-17                          199                                         294.76018842006255                  -1.9546219527287413e-09                -2.3643384344749324e-21              1.0978858752461164e-18         5.5742818324743905e-19             6.3343286102662777                     8.490374360011808                        8.490374360011808              0                    0                    0                    0                    0                    4.0454182098051249e-17    31                            31                          0                     0.00028354382909149547  0.99906113065776114  0.00013894401704056593        1.1703401986900029e-12              3.1694747049644856e-11       
                       4.2107676802695106e-17                          205                                         285.78770354898671                  -1.8305178496272612e-09                -1.8193538497049743e-21              1.0770618909111786e-18         5.5041748990856264e-19             6.3402829476101497                     8.490374360011808                        8.490374360011808              0                    0                    0                    0                    0                    4.0480197421875359e-17    32                            32                          0                     0.00029934730775498024  0.99908047349041429  7.1292538771425512e-05        9.6247932384710346e-13              3.2657226373491959e-11       
                       4.2106042285970813e-17                          211                                         275.74441669951915                  -1.714864550689239e-09                -1.6345167242923454e-21              1.0570712529652042e-18         5.4345459974400831e-19             6.3427961495064045                     8.490374360011808                        8.490374360011808              0                    0                    0                    0                    0                    4.05055164332616e-17    33                            33                          0                     0.00029562752723738127  0.99909894577815805  1.4292045987357053e-05        9.2216700023019227e-13              3.3579393373722153e-11       
                       4.2104136362879744e-17                          217                                         262.03961266487181                  -1.5673026970848734e-09                -1.9059230910657172e-21              1.0322596329412657e-18         5.3461333760591853e-19             6.3430951733355885                     8.490374360011808                        8.490374360011808              0                    0                    0                    0                    0                    4.0537263392332562e-17    34                            34                          0                     0.00027013631121749029  0.9991217486414592  -4.4776735363916203e-05        1.1613343462176455e-12              3.47407277199398e-11       
                       4.2101930910664419e-17                          223                                         242.98877940395408                  -1.3816745186164365e-09                -2.2054522153281763e-21              1.0014409136881036e-18         5.2350851846554719e-19             6.3411435431605829                     8.490374360011808                        8.490374360011808              0                    0                    0                    0                    0                    4.0576981478510768e-17    35                            35                          0                     0.00021319125525387928  0.99914989161032042 -9.8874751528451154e-05        1.5043752763310871e-12              3.624510299627089e-11       
                       4.2100607755554656e-17                          235                                         227.91339014055737                  -1.2384996720803011e-09                -1.3231551097668091e-21              9.8190543112471245e-19         5.1648665094444108e-19             6.3393655933295783                     8.490374360011808                        8.490374360011808              0                    0                    0                    0                    0                    4.0602215673485497e-17    36                            36                          0                     0.00016599306664099976  0.99916763266674424 -0.00012138394660079159        1.0140893129200514e-12              3.7259192309190944e-11       