# OOMMF: rectangular mesh v1.0
# Segment count: 1
# Begin: Segment
# Begin: Header
# Desc: Time (s) :  0
# Title: m
# meshtype: rectangular
# meshunit: m
# xbase: 2.5e-09
# ybase: 2.5e-09
# zbase: 2.5e-09
# xstepsize: 5e-09
# ystepsize: 5e-09
# zstepsize: 5e-09
# xmin: 0
# ymin: 0
# zmin: 0
# xmax: 6.000000000000001e-08
# ymax: 6.000000000000001e-08
# zmax: 1e-08
# xnodes: 12
# ynodes: 12
# znodes: 2
# ValueRangeMinMag: 1e-08
# ValueRangeMaxMag: 1
# valueunit: 
# valuemultiplier: 1
# End: Header
# Begin: Data Text
0.065591544 0.9974652 0.027586427 
0.016014395 0.9995097 0.026906518 
0 0 0 
0 0 0 
0.023764942 0.9993307 0.027811488 
-0.02376492 0.99933064 0.027811486 
0 0 0 
0 0 0 
-0.016014365 0.9995097 0.026906515 
-0.065591514 0.99746513 0.027586415 
0 0 0 
0 0 0 
0.03276375 0.9994313 0.007976699 
0.019693974 0.99978006 0.0072184885 
0 0 0 
0 0 0 
0.0062456885 0.9999503 0.007785683 
-0.0062456666 0.99995023 0.007785681 
0 0 0 
0 0 0 
-0.019693952 0.99978 0.007218485 
-0.032763734 0.9994314 0.007976695 
0 0 0 
0 0 0 
0.004681274 0.99996805 -0.006485023 
0.01713115 0.9998281 -0.007094043 
0 0 0 
0 0 0 
-0.0055530183 0.99996 -0.0070151733 
0.0055530407 0.99996 -0.007015172 
0 0 0 
0 0 0 
-0.017131131 0.99982816 -0.007094043 
-0.0046812585 0.99996805 -0.0064850235 
0 0 0 
0 0 0 
-0.02326449 0.9993917 -0.025983743 
0.025603533 0.99932146 -0.026480557 
0 0 0 
0 0 0 
-0.02299108 0.99937797 -0.02674508 
0.022991098 0.9993779 -0.026745073 
0 0 0 
0 0 0 
-0.02560351 0.9993214 -0.026480552 
0.023264505 0.9993917 -0.025983736 
0 0 0 
0 0 0 
0 0 0 
0 0 0 
0 0 0 
0 0 0 
0 0 0 
0 0 0 
0 0 0 
0 0 0 
0 0 0 
0 0 0 
0 0 0 
0 0 0 
0 0 0 
0 0 0 
0 0 0 
0 0 0 
0 0 0 
0 0 0 
0 0 0 
0 0 0 
0 0 0 
0 0 0 
0 0 0 
0 0 0 
0 0 0 
0 0 0 
0 0 0 
0 0 0 
0 0 0 
0 0 0 
0 0 0 
0 0 0 
0 0 0 
0 0 0 
0 0 0 
0 0 0 
0 0 0 
0 0 0 
0 0 0 
0 0 0 
0 0 0 
0 0 0 
0 0 0 
0 0 0 
0 0 0 
0 0 0 
0 0 0 
0 0 0 
0.023264498 0.9993917 0.025983745 
-0.025603518 0.99932146 0.026480563 
0 0 0 
0 0 0 
0.02299108 0.9993779 0.026745066 
-0.022991097 0.99937797 0.026745068 
0 0 0 
0 0 0 
0.025603505 0.9993214 0.026480548 
-0.02326451 0.99939173 0.025983738 
0 0 0 
0 0 0 
-0.0046812664 0.99996805 0.006485026 
-0.01713114 0.9998281 0.007094047 
0 0 0 
0 0 0 
0.005553018 0.99996 0.0070151654 
-0.00555304 0.99996006 0.007015166 
0 0 0 
0 0 0 
0.017131126 0.99982816 0.0070940396 
0.004681254 0.999968 0.006485018 
0 0 0 
0 0 0 
-0.032763742 0.9994313 -0.007976698 
-0.019693965 0.99978 -0.007218487 
0 0 0 
0 0 0 
-0.0062456923 0.99995023 -0.0077856896 
0.006245664 0.9999503 -0.0077856886 
0 0 0 
0 0 0 
0.019693948 0.99978 -0.0072184876 
0.032763727 0.9994314 -0.0079767 
0 0 0 
0 0 0 
-0.06559153 0.9974652 -0.027586421 
-0.016014384 0.99950963 -0.026906515 
0 0 0 
0 0 0 
-0.02376495 0.99933064 -0.027811496 
0.023764908 0.99933064 -0.027811494 
0 0 0 
0 0 0 
0.016014364 0.9995097 -0.02690651 
0.0655915 0.99746513 -0.027586414 
0 0 0 
0 0 0 
0.06559154 0.99746513 -0.027586406 
0.016014393 0.99950963 -0.0269065 
0 0 0 
0 0 0 
0.023764942 0.9993307 -0.027811488 
-0.02376492 0.9993307 -0.027811492 
0 0 0 
0 0 0 
-0.016014367 0.99950963 -0.0269065 
-0.065591514 0.99746513 -0.027586408 
0 0 0 
0 0 0 
0.032763753 0.9994314 -0.0079766875 
0.019693976 0.99978006 -0.007218477 
0 0 0 
0 0 0 
0.0062456895 0.9999503 -0.007785682 
-0.006245666 0.99995023 -0.0077856826 
0 0 0 
0 0 0 
-0.019693956 0.99978006 -0.007218477 
-0.03276374 0.9994314 -0.007976688 
0 0 0 
0 0 0 
0.0046812743 0.999968 0.0064850315 
0.017131152 0.99982816 0.007094051 
0 0 0 
0 0 0 
-0.005553015 0.99996006 0.007015169 
0.005553042 0.99996 0.007015171 
0 0 0 
0 0 0 
-0.017131133 0.99982816 0.007094055 
-0.0046812603 0.999968 0.0064850342 
0 0 0 
0 0 0 
-0.02326449 0.99939173 0.025983755 
0.02560353 0.99932146 0.026480567 
0 0 0 
0 0 0 
-0.022991074 0.9993779 0.026745068 
0.0229911 0.99937797 0.026745072 
0 0 0 
0 0 0 
-0.025603514 0.99932146 0.02648057 
0.023264505 0.99939173 0.025983756 
0 0 0 
0 0 0 
0 0 0 
0 0 0 
0 0 0 
0 0 0 
0 0 0 
0 0 0 
0 0 0 
0 0 0 
0 0 0 
0 0 0 
0 0 0 
0 0 0 
0 0 0 
0 0 0 
0 0 0 
0 0 0 
0 0 0 
0 0 0 
0 0 0 
0 0 0 
0 0 0 
0 0 0 
0 0 0 
0 0 0 
0 0 0 
0 0 0 
0 0 0 
0 0 0 
0 0 0 
0 0 0 
0 0 0 
0 0 0 
0 0 0 
0 0 0 
0 0 0 
0 0 0 
0 0 0 
0 0 0 
0 0 0 
0 0 0 
0 0 0 
0 0 0 
0 0 0 
0 0 0 
0 0 0 
0 0 0 
0 0 0 
0 0 0 
0.0232645 0.9993916 -0.025983747 
-0.025603516 0.9993214 -0.026480561 
0 0 0 
0 0 0 
0.022991078 0.9993779 -0.026745073 
-0.022991095 0.99937797 -0.02674508 
0 0 0 
0 0 0 
0.025603507 0.99932146 -0.026480572 
-0.023264509 0.9993916 -0.025983755 
0 0 0 
0 0 0 
-0.004681265 0.99996805 -0.0064850305 
-0.01713114 0.99982816 -0.0070940508 
0 0 0 
0 0 0 
0.005553019 0.99996006 -0.007015177 
-0.0055530393 0.99996 -0.007015177 
0 0 0 
0 0 0 
0.017131126 0.99982816 -0.007094057 
0.0046812533 0.99996805 -0.006485036 
0 0 0 
0 0 0 
-0.03276374 0.9994313 0.007976687 
-0.019693967 0.99978006 0.007218475 
0 0 0 
0 0 0 
-0.006245691 0.9999503 0.0077856737 
0.0062456657 0.9999503 0.0077856756 
0 0 0 
0 0 0 
0.019693948 0.99978006 0.0072184755 
0.032763727 0.9994313 0.007976687 
0 0 0 
0 0 0 
-0.06559152 0.99746513 0.027586402 
-0.016014384 0.9995097 0.026906498 
0 0 0 
0 0 0 
-0.023764947 0.99933064 0.027811475 
0.02376491 0.9993307 0.027811483 
0 0 0 
0 0 0 
0.016014367 0.99950963 0.0269065 
0.06559151 0.99746513 0.02758641 
0 0 0 
0 0 0 
# End: Data Text
# End: Segment
