# OOMMF: rectangular mesh v1.0
# Segment count: 1
# Begin: Segment
# Begin: Header
# Desc: Time (s) :  0
# Title: B_demag
# meshtype: rectangular
# meshunit: m
# xbase: 2.5e-09
# ybase: 2.5e-09
# zbase: 2.5e-09
# xstepsize: 5e-09
# ystepsize: 5e-09
# zstepsize: 5e-09
# xmin: 0
# ymin: 0
# zmin: 0
# xmax: 6.000000000000001e-08
# ymax: 6.000000000000001e-08
# zmax: 1e-08
# xnodes: 12
# ynodes: 12
# znodes: 2
# ValueRangeMinMag: 1e-08
# ValueRangeMaxMag: 1
# valueunit: T
# valuemultiplier: 1
# End: Header
# Begin: Data Text
0.11016026 -0.47990125 0.11628194 
-0.09929657 -0.4962229 0.11139616 
-0.10136405 -0.17299089 0.05712403 
0.13442707 -0.17252979 0.06108442 
0.09960923 -0.50161237 0.11575323 
-0.099609256 -0.50161237 0.11575323 
-0.13442706 -0.17252982 0.061084416 
0.10136405 -0.17299087 0.05712403 
0.09929657 -0.49622288 0.111396156 
-0.11016027 -0.47990113 0.11628194 
-0.21796328 -0.130041 0.054327153 
-0.08262537 -0.043696992 0.014861688 
0.006771036 -0.22691226 0.01799747 
-0.016356574 -0.2352098 0.012528846 
-0.0013536215 -0.19317284 0.013403643 
0.025319235 -0.19929124 0.016742315 
0.010040345 -0.24979503 0.015783641 
-0.010040361 -0.249795 0.015783638 
-0.025319213 -0.19929126 0.016742311 
0.0013536424 -0.19317281 0.013403647 
0.016356574 -0.23520976 0.012528854 
-0.0067710695 -0.22691238 0.017997464 
-0.061882883 -0.14531286 0.017417308 
-0.036709152 -0.06933366 0.006675571 
-0.022632863 -0.22339389 -0.011092788 
-0.0015288489 -0.23005569 -0.015030866 
0.02463347 -0.18689191 -0.016635455 
-0.014906183 -0.19290718 -0.0150175365 
-0.008013146 -0.24359064 -0.013886204 
0.0080131395 -0.24359071 -0.013886193 
0.014906214 -0.19290715 -0.015017534 
-0.024633473 -0.18689199 -0.016635455 
0.0015288363 -0.2300558 -0.015030874 
0.022632856 -0.22339387 -0.011092795 
0.03040063 -0.1433907 -0.008229552 
0.014084025 -0.06828329 -0.00269088 
-0.12069866 -0.47263443 -0.10939607 
0.08614583 -0.4752885 -0.11230795 
0.12439577 -0.14912897 -0.05824122 
-0.12481317 -0.15234506 -0.057867944 
-0.0976574 -0.48188543 -0.11265068 
0.09765738 -0.48188537 -0.112650685 
0.124813184 -0.15234506 -0.057867948 
-0.124395765 -0.14912893 -0.05824121 
-0.08614583 -0.47528842 -0.11230794 
0.120698646 -0.47263443 -0.10939607 
0.18520415 -0.12745413 -0.04557632 
0.05911638 -0.04035817 -0.010835143 
-0.14108033 0.42954797 -0.132651 
0.108712636 0.43501392 -0.13505605 
0.11924222 0.116436936 -0.059615914 
-0.122883804 0.11622884 -0.05972696 
-0.11817227 0.436498 -0.13593856 
0.11817227 0.43649796 -0.13593857 
0.12288381 0.116228856 -0.059726972 
-0.11924219 0.11643692 -0.059615906 
-0.10871264 0.43501383 -0.13505605 
0.14108029 0.42954797 -0.13265099 
0.18397799 0.09394129 -0.047982953 
0.061240688 0.011055194 -0.011295635 
-0.026950512 0.18962345 -0.023655187 
0.013963641 0.2012389 -0.024577884 
0.01646395 0.1490373 -0.016520575 
-0.018227957 0.15047982 -0.016601313 
-0.0177619 0.20750394 -0.024972085 
0.017761886 0.20750394 -0.024972096 
0.018227965 0.1504798 -0.016601304 
-0.01646394 0.14903733 -0.016520575 
-0.013963652 0.20123893 -0.024577864 
0.026950495 0.18962348 -0.023655185 
0.03987272 0.10384868 -0.012355333 
0.021892667 0.03743287 -0.004145089 
0.026950508 0.18962346 0.023655187 
-0.013963638 0.20123892 0.024577871 
-0.016463943 0.14903732 0.016520575 
0.018227963 0.15047982 0.016601317 
0.017761897 0.20750394 0.0249721 
-0.017761895 0.20750397 0.0249721 
-0.018227965 0.15047982 0.016601317 
0.016463943 0.14903732 0.01652058 
0.013963649 0.2012389 0.024577878 
-0.026950518 0.18962345 0.023655199 
-0.039872743 0.1038487 0.0123553425 
-0.021892667 0.037432864 0.004145093 
0.14108032 0.4295479 0.132651 
-0.10871262 0.43501383 0.13505605 
-0.119242206 0.116436906 0.059615906 
0.12288381 0.116228804 0.05972697 
0.118172295 0.43649793 0.13593856 
-0.11817227 0.43649796 0.13593857 
-0.12288384 0.1162288 0.059726976 
0.11924219 0.116436884 0.059615914 
0.10871263 0.4350138 0.13505605 
-0.14108029 0.42954794 0.13265099 
-0.18397798 0.09394129 0.047982957 
-0.06124068 0.011055216 0.011295639 
0.12069865 -0.47263438 0.10939607 
-0.08614582 -0.4752885 0.112307936 
-0.12439577 -0.14912897 0.05824121 
0.12481316 -0.1523451 0.05786795 
0.09765739 -0.48188537 0.11265068 
-0.09765736 -0.4818855 0.112650685 
-0.124813184 -0.15234508 0.057867944 
0.124395736 -0.14912897 0.05824121 
0.08614583 -0.47528836 0.112307936 
-0.120698646 -0.47263446 0.10939607 
-0.18520415 -0.1274541 0.045576327 
-0.059116386 -0.040358193 0.010835152 
0.022632848 -0.22339386 0.011092799 
0.0015288307 -0.23005573 0.015030875 
-0.024633463 -0.18689197 0.016635457 
0.014906199 -0.19290718 0.015017532 
0.008013142 -0.24359068 0.0138862 
-0.008013134 -0.24359067 0.0138861975 
-0.014906203 -0.19290717 0.01501753 
0.024633463 -0.18689197 0.016635451 
-0.0015288417 -0.23005578 0.015030872 
-0.022632845 -0.22339389 0.011092797 
-0.030400608 -0.14339069 0.008229553 
-0.014084024 -0.068283275 0.002690883 
-0.0067710583 -0.22691229 -0.017997473 
0.016356569 -0.23520973 -0.012528854 
0.0013536261 -0.19317281 -0.013403645 
-0.025319237 -0.19929124 -0.016742319 
-0.010040352 -0.24979502 -0.015783647 
0.010040364 -0.24979508 -0.01578364 
0.025319226 -0.19929126 -0.016742315 
-0.0013536448 -0.19317281 -0.013403648 
-0.016356567 -0.2352097 -0.0125288535 
0.0067710737 -0.22691229 -0.017997477 
0.061882894 -0.14531285 -0.017417315 
0.03670916 -0.06933364 -0.006675573 
-0.11016025 -0.47990116 -0.11628193 
0.09929656 -0.49622288 -0.111396156 
0.10136403 -0.17299087 -0.05712403 
-0.13442709 -0.17252979 -0.061084412 
-0.09960924 -0.5016123 -0.11575322 
0.09960924 -0.5016123 -0.115753226 
0.13442707 -0.17252979 -0.06108442 
-0.10136403 -0.17299089 -0.05712403 
-0.099296555 -0.49622285 -0.111396156 
0.11016026 -0.4799012 -0.11628193 
0.21796323 -0.13004097 -0.054327153 
0.08262537 -0.043697 -0.01486169 
0.11016027 -0.47990122 -0.11628196 
-0.09929657 -0.49622285 -0.11139618 
-0.10136405 -0.17299086 -0.057124034 
0.13442709 -0.1725298 -0.061084427 
0.09960923 -0.50161237 -0.11575324 
-0.09960925 -0.50161237 -0.11575323 
-0.13442706 -0.17252979 -0.06108442 
0.101364054 -0.17299086 -0.05712404 
0.09929656 -0.49622285 -0.11139617 
-0.11016028 -0.47990116 -0.11628196 
-0.21796325 -0.130041 -0.05432716 
-0.082625344 -0.043697 -0.014861694 
0.0067710546 -0.22691232 -0.017997479 
-0.016356573 -0.2352098 -0.012528855 
-0.0013536289 -0.19317281 -0.013403641 
0.025319241 -0.19929123 -0.016742319 
0.010040351 -0.24979502 -0.015783638 
-0.010040367 -0.24979502 -0.015783636 
-0.025319211 -0.19929123 -0.016742311 
0.0013536494 -0.19317283 -0.013403645 
0.016356565 -0.23520982 -0.012528858 
-0.006771081 -0.22691236 -0.017997477 
-0.061882887 -0.14531286 -0.017417314 
-0.036709152 -0.06933365 -0.0066755703 
-0.022632858 -0.22339383 0.011092789 
-0.0015288512 -0.23005566 0.015030854 
0.02463347 -0.18689193 0.016635451 
-0.014906194 -0.19290718 0.015017525 
-0.008013135 -0.24359071 0.013886198 
0.008013147 -0.24359062 0.013886201 
0.014906205 -0.19290715 0.015017536 
-0.02463347 -0.18689197 0.016635451 
0.0015288419 -0.23005575 0.0150308665 
0.022632848 -0.2233938 0.011092793 
0.030400628 -0.14339069 0.008229548 
0.014084031 -0.06828326 0.0026908787 
-0.12069866 -0.47263443 0.10939607 
0.08614583 -0.4752885 0.112307936 
0.12439577 -0.14912894 0.05824121 
-0.12481317 -0.15234505 0.05786795 
-0.09765738 -0.4818853 0.11265068 
0.09765738 -0.48188543 0.112650685 
0.12481317 -0.15234506 0.057867944 
-0.124395765 -0.14912893 0.05824121 
-0.08614584 -0.47528842 0.112307936 
0.12069863 -0.47263446 0.10939607 
0.18520415 -0.12745413 0.045576323 
0.059116393 -0.04035811 0.010835158 
-0.14108035 0.42954803 0.132651 
0.10871263 0.4350139 0.13505605 
0.11924222 0.116436966 0.05961591 
-0.1228838 0.11622884 0.059726972 
-0.11817228 0.43649793 0.13593857 
0.118172266 0.436498 0.13593856 
0.12288381 0.11622885 0.05972696 
-0.1192422 0.11643693 0.059615903 
-0.10871263 0.43501383 0.13505605 
0.14108029 0.42954803 0.13265099 
0.18397799 0.093941286 0.047982953 
0.061240677 0.011055216 0.011295639 
-0.026950516 0.18962342 0.02365519 
0.013963643 0.2012389 0.024577886 
0.016463948 0.1490373 0.016520577 
-0.018227953 0.15047982 0.016601317 
-0.017761894 0.20750394 0.024972089 
0.017761886 0.20750394 0.0249721 
0.01822796 0.1504798 0.016601305 
-0.016463934 0.1490373 0.016520578 
-0.01396364 0.20123893 0.024577867 
0.026950495 0.18962346 0.023655193 
0.03987272 0.103848666 0.012355337 
0.02189266 0.037432857 0.0041450947 
0.026950508 0.18962345 -0.023655195 
-0.013963633 0.20123887 -0.024577875 
-0.01646394 0.1490373 -0.016520571 
0.01822796 0.15047981 -0.016601313 
0.017761897 0.20750393 -0.024972092 
-0.017761894 0.20750396 -0.024972102 
-0.018227967 0.15047981 -0.016601313 
0.01646394 0.1490373 -0.01652058 
0.013963642 0.20123887 -0.024577871 
-0.026950508 0.18962346 -0.023655199 
-0.039872736 0.1038487 -0.012355337 
-0.021892669 0.037432842 -0.0041450914 
0.14108032 0.42954785 -0.13265099 
-0.1087126 0.43501383 -0.13505605 
-0.11924219 0.11643691 -0.0596159 
0.1228838 0.11622877 -0.059726965 
0.11817229 0.43649793 -0.13593856 
-0.11817227 0.43649793 -0.13593856 
-0.12288383 0.1162288 -0.059726965 
0.11924219 0.1164369 -0.0596159 
0.1087126 0.43501383 -0.13505605 
-0.14108029 0.42954788 -0.132651 
-0.18397796 0.09394123 -0.047982953 
-0.06124067 0.011055216 -0.011295645 
0.12069866 -0.47263432 -0.10939607 
-0.08614582 -0.47528845 -0.112307936 
-0.12439577 -0.14912897 -0.058241203 
0.12481316 -0.15234508 -0.05786794 
0.09765739 -0.48188537 -0.11265068 
-0.09765737 -0.4818855 -0.11265068 
-0.124813184 -0.15234509 -0.05786794 
0.12439574 -0.14912897 -0.058241203 
0.08614583 -0.47528842 -0.112307936 
-0.120698646 -0.47263438 -0.10939606 
-0.18520415 -0.12745407 -0.04557633 
-0.05911637 -0.04035814 -0.010835148 
0.022632856 -0.2233939 -0.011092788 
0.001528827 -0.23005573 -0.015030863 
-0.024633478 -0.18689197 -0.016635451 
0.0149062 -0.19290717 -0.015017535 
0.008013146 -0.24359068 -0.013886197 
-0.008013139 -0.24359065 -0.013886198 
-0.014906207 -0.19290718 -0.015017532 
0.024633463 -0.18689194 -0.016635455 
-0.0015288326 -0.23005575 -0.015030867 
-0.022632845 -0.22339395 -0.0110927895 
-0.030400615 -0.14339069 -0.008229549 
-0.0140840225 -0.06828327 -0.0026908864 
-0.006771057 -0.22691229 0.017997479 
0.016356565 -0.23520975 0.01252885 
0.001353622 -0.19317281 0.013403641 
-0.025319241 -0.19929123 0.016742313 
-0.010040343 -0.249795 0.015783641 
0.010040371 -0.24979503 0.015783638 
0.025319213 -0.19929126 0.016742315 
-0.0013536457 -0.19317281 0.013403643 
-0.016356561 -0.23520973 0.012528855 
0.006771077 -0.22691223 0.017997477 
0.061882883 -0.14531283 0.017417317 
0.036709152 -0.06933361 0.0066755703 
-0.11016027 -0.47990113 0.116281934 
0.099296555 -0.49622288 0.11139616 
0.10136403 -0.17299084 0.05712401 
-0.1344271 -0.17252977 0.06108442 
-0.09960924 -0.5016122 0.115753226 
0.099609226 -0.5016123 0.11575324 
0.13442707 -0.17252976 0.061084416 
-0.10136403 -0.17299087 0.057124034 
-0.09929655 -0.49622282 0.11139616 
0.11016026 -0.47990113 0.11628194 
0.21796322 -0.13004097 0.054327153 
0.08262536 -0.043696985 0.014861684 
# End: Data Text
# End: Segment
