//output directory: round_capped_single.out/
OutputFormat = OVF1_TEXT
EdgeSmooth = 8
SetGridsize(30, 160, 12)
SetCellsize(5e-9, 5e-9, 5e-9)
Ms := 800e3
ExchangeE := 13e-12
baseCub := Cuboid(100e-9, 580e-9, 20e-9)
cyl := Cylinder(40e-9, 100e-9)
cub := Cuboid(40e-9, 40e-9, 100e-9).transl(0, 20e-9, 0)
halfCyl := cyl.intersect(cub).transl(0, 290e-9, 0)
roundedTip := baseCub.add(halfCyl).transl(0, -10e-9, 0)
DefRegion(1, halfCyl)
Msat.SetRegion(1, Ms)
m.SetRegion(1, uniform(0, 1, 0))
Aex.SetRegion(1, ExchangeE)
Ku1.SetRegion(1, 0)
alpha.SetRegion(1, 0.01)
Msat.SetRegion(0, 0)
m.SetRegion(0, uniform(0, 0, 0))
Aex.SetRegion(0, 0)
Kc1.SetRegion(0, 0)
relax()
saveas(m, "m_one_rounded_tip")
saveas(B_demag, "strayfield_one_rounded_tip")
