# OOMMF: rectangular mesh v1.0
# Segment count: 1
# Begin: Segment
# Begin: Header
# Desc: Time (s) :  0
# Title: B_demag
# meshtype: rectangular
# meshunit: m
# xbase: 2.5e-09
# ybase: 2.5e-09
# zbase: 2.5e-09
# xstepsize: 5e-09
# ystepsize: 5e-09
# zstepsize: 5e-09
# xmin: 0
# ymin: 0
# zmin: 0
# xmax: 1.5e-07
# ymax: 8e-07
# zmax: 6.000000000000001e-08
# xnodes: 30
# ynodes: 160
# znodes: 12
# ValueRangeMinMag: 1e-08
# ValueRangeMaxMag: 1
# valueunit: T
# valuemultiplier: 1
# End: Header
# Begin: Data Text
-1.0952152e-07 -1.0535804e-06 8.962934e-06 
-1.03771725e-07 -1.0567467e-06 8.984192e-06 
-9.510321e-08 -1.0609838e-06 8.999871e-06 
-8.837902e-08 -1.0635707e-06 9.018626e-06 
-8.147504e-08 -1.0668194e-06 9.03397e-06 
-7.177331e-08 -1.0685161e-06 9.047232e-06 
-6.583642e-08 -1.071276e-06 9.060221e-06 
-5.6113354e-08 -1.0730681e-06 9.0701005e-06 
-5.0236128e-08 -1.0753777e-06 9.080842e-06 
-4.175471e-08 -1.0771367e-06 9.088253e-06 
-3.4904993e-08 -1.078331e-06 9.095003e-06 
-2.6454513e-08 -1.0796676e-06 9.1002585e-06 
-1.940208e-08 -1.080083e-06 9.10456e-06 
-1.1592192e-08 -1.0816888e-06 9.107738e-06 
-3.5582275e-09 -1.0808963e-06 9.107801e-06 
3.833712e-09 -1.0819782e-06 9.110885e-06 
1.13270815e-08 -1.0810091e-06 9.1086795e-06 
2.0079561e-08 -1.0807647e-06 9.107312e-06 
2.75164e-08 -1.0789593e-06 9.102003e-06 
3.6283947e-08 -1.0787279e-06 9.095712e-06 
4.2718376e-08 -1.0767947e-06 9.0881285e-06 
5.0567856e-08 -1.0765225e-06 9.079564e-06 
5.7607373e-08 -1.073786e-06 9.069631e-06 
6.559262e-08 -1.0726272e-06 9.058421e-06 
7.2714506e-08 -1.0688786e-06 9.046209e-06 
7.986059e-08 -1.0668094e-06 9.032357e-06 
8.706417e-08 -1.0632214e-06 9.018541e-06 
9.478585e-08 -1.0606368e-06 9.000643e-06 
1.01876424e-07 -1.0563737e-06 8.983858e-06 
1.1000908e-07 -1.0531176e-06 8.964438e-06 
-1.1347035e-07 -1.0835801e-06 9.156434e-06 
-1.06206386e-07 -1.088198e-06 9.176091e-06 
-9.875511e-08 -1.0912944e-06 9.193822e-06 
-9.052482e-08 -1.0948529e-06 9.211932e-06 
-8.429066e-08 -1.0968511e-06 9.227792e-06 
-7.459245e-08 -1.1006115e-06 9.240918e-06 
-6.840149e-08 -1.1023736e-06 9.254622e-06 
-5.9188157e-08 -1.1057741e-06 9.263655e-06 
-5.2551368e-08 -1.1065209e-06 9.2753135e-06 
-4.3111545e-08 -1.110076e-06 9.2839655e-06 
-3.5350723e-08 -1.1099022e-06 9.291184e-06 
-2.6682677e-08 -1.1128918e-06 9.298342e-06 
-1.8180927e-08 -1.1120331e-06 9.301724e-06 
-1.1635066e-08 -1.1139306e-06 9.305795e-06 
-2.9147103e-09 -1.1128727e-06 9.305613e-06 
3.388152e-09 -1.1134472e-06 9.307141e-06 
1.2418603e-08 -1.1127321e-06 9.305263e-06 
1.8821716e-08 -1.1114756e-06 9.302705e-06 
2.7951153e-08 -1.111359e-06 9.2993405e-06 
3.6135045e-08 -1.108256e-06 9.294442e-06 
4.3973778e-08 -1.1089145e-06 9.287975e-06 
5.2204282e-08 -1.105142e-06 9.2781875e-06 
5.981599e-08 -1.1054448e-06 9.267951e-06 
6.771634e-08 -1.101961e-06 9.255355e-06 
7.57323e-08 -1.1018367e-06 9.241829e-06 
8.2161314e-08 -1.0966168e-06 9.227029e-06 
9.021308e-08 -1.0955143e-06 9.211657e-06 
9.785653e-08 -1.0898746e-06 9.193355e-06 
1.0612865e-07 -1.0879758e-06 9.1759775e-06 
1.1342132e-07 -1.0830078e-06 9.155572e-06 
-1.1752741e-07 -1.1163297e-06 9.354992e-06 
-1.0991107e-07 -1.120166e-06 9.376003e-06 
-1.026239e-07 -1.1236813e-06 9.394559e-06 
-9.388578e-08 -1.1266967e-06 9.411515e-06 
-8.72441e-08 -1.12939e-06 9.428464e-06 
-7.734715e-08 -1.1323904e-06 9.441865e-06 
-7.147628e-08 -1.1352402e-06 9.457582e-06 
-6.1368326e-08 -1.1373551e-06 9.468099e-06 
-5.479276e-08 -1.1403719e-06 9.48095e-06 
-4.5463075e-08 -1.1413567e-06 9.488045e-06 
-3.707698e-08 -1.1449164e-06 9.496534e-06 
-2.8477798e-08 -1.1444425e-06 9.50195e-06 
-2.0377698e-08 -1.1475136e-06 9.506891e-06 
-1.2872555e-08 -1.1451451e-06 9.509577e-06 
-3.878867e-09 -1.148658e-06 9.51048e-06 
3.1143585e-09 -1.1452662e-06 9.511355e-06 
1.231065e-08 -1.1480587e-06 9.509883e-06 
1.99473e-08 -1.1434286e-06 9.506139e-06 
2.9429678e-08 -1.1453475e-06 9.502732e-06 
3.669291e-08 -1.1410987e-06 9.496612e-06 
4.5718124e-08 -1.1411788e-06 9.490021e-06 
5.3441273e-08 -1.139091e-06 9.479428e-06 
6.227516e-08 -1.1370867e-06 9.469975e-06 
7.021556e-08 -1.1355203e-06 9.456604e-06 
7.869522e-08 -1.1317788e-06 9.443814e-06 
8.568185e-08 -1.1300381e-06 9.42753e-06 
9.385677e-08 -1.1258321e-06 9.412267e-06 
1.0179701e-07 -1.123343e-06 9.393204e-06 
1.1026002e-07 -1.1187104e-06 9.375216e-06 
1.1875595e-07 -1.1151137e-06 9.353821e-06 
-1.223219e-07 -1.1472482e-06 9.55996e-06 
-1.1418291e-07 -1.1511105e-06 9.580575e-06 
-1.0694018e-07 -1.1547779e-06 9.600508e-06 
-9.80102e-08 -1.1582399e-06 9.617783e-06 
-9.092825e-08 -1.1619561e-06 9.635378e-06 
-8.1064755e-08 -1.1649388e-06 9.650014e-06 
-7.4786406e-08 -1.1686128e-06 9.66561e-06 
-6.397133e-08 -1.1704558e-06 9.676898e-06 
-5.7999323e-08 -1.1739203e-06 9.690295e-06 
-4.6654208e-08 -1.1745415e-06 9.6976555e-06 
-3.9931585e-08 -1.1776845e-06 9.708816e-06 
-2.7669962e-08 -1.1781253e-06 9.711432e-06 
-2.1526375e-08 -1.1807574e-06 9.718394e-06 
-1.2781449e-08 -1.1793629e-06 9.716458e-06 
-3.6820609e-09 -1.181778e-06 9.722301e-06 
3.8973127e-09 -1.1795727e-06 9.719088e-06 
1.43973935e-08 -1.1806998e-06 9.7215625e-06 
2.0861108e-08 -1.1776058e-06 9.714503e-06 
3.2434222e-08 -1.178701e-06 9.713847e-06 
3.8227462e-08 -1.1747856e-06 9.7047005e-06 
4.8211216e-08 -1.1752527e-06 9.699981e-06 
5.4813132e-08 -1.1710742e-06 9.687331e-06 
6.46517e-08 -1.1707684e-06 9.678403e-06 
7.232431e-08 -1.1663237e-06 9.664316e-06 
8.1355196e-08 -1.1651803e-06 9.651687e-06 
8.885547e-08 -1.1606136e-06 9.634165e-06 
9.792767e-08 -1.1585138e-06 9.619011e-06 
1.0506761e-07 -1.1537267e-06 9.598049e-06 
1.1424072e-07 -1.1510216e-06 9.580308e-06 
1.2226485e-07 -1.1457686e-06 9.556761e-06 
-1.272748e-07 -1.1809818e-06 9.76993e-06 
-1.1820636e-07 -1.1854726e-06 9.792007e-06 
-1.1018551e-07 -1.1891659e-06 9.8116125e-06 
-1.01239024e-07 -1.1930698e-06 9.830011e-06 
-9.384644e-08 -1.1962228e-06 9.847731e-06 
-8.444326e-08 -1.1999331e-06 9.8638775e-06 
-7.696095e-08 -1.2028678e-06 9.879128e-06 
-6.654462e-08 -1.2061195e-06 9.891793e-06 
-6.0806514e-08 -1.2084088e-06 9.904557e-06 
-4.8480285e-08 -1.2105701e-06 9.91294e-06 
-4.3327013e-08 -1.2115811e-06 9.924558e-06 
-2.9569732e-08 -1.2135889e-06 9.928344e-06 
-2.2914953e-08 -1.2150433e-06 9.93829e-06 
-1.2681788e-08 -1.2158554e-06 9.93333e-06 
-3.7456687e-09 -1.2161142e-06 9.94286e-06 
4.6906123e-09 -1.215712e-06 9.935249e-06 
1.5294468e-08 -1.2146164e-06 9.941311e-06 
2.2741972e-08 -1.2135422e-06 9.930568e-06 
3.5188854e-08 -1.2117968e-06 9.929889e-06 
4.0469992e-08 -1.2109846e-06 9.918811e-06 
5.0745275e-08 -1.2096457e-06 9.912979e-06 
5.669421e-08 -1.2056174e-06 9.903101e-06 
6.6911106e-08 -1.2044953e-06 9.891029e-06 
7.479251e-08 -1.1999025e-06 9.879953e-06 
8.444336e-08 -1.1985915e-06 9.863959e-06 
9.2860816e-08 -1.1942839e-06 9.848487e-06 
1.0181231e-07 -1.1918504e-06 9.830965e-06 
1.09469e-07 -1.1876366e-06 9.810943e-06 
1.18362024e-07 -1.1845955e-06 9.792588e-06 
1.2607273e-07 -1.1799809e-06 9.7680195e-06 
-1.3147023e-07 -1.2157226e-06 9.984834e-06 
-1.2287771e-07 -1.220235e-06 1.0010992e-05 
-1.1414821e-07 -1.2247584e-06 1.002975e-05 
-1.0507257e-07 -1.2283067e-06 1.0051106e-05 
-9.6795645e-08 -1.2319585e-06 1.0068049e-05 
-8.715071e-08 -1.2350642e-06 1.0085337e-05 
-7.857533e-08 -1.2384578e-06 1.0100623e-05 
-6.889103e-08 -1.2408899e-06 1.0113307e-05 
-6.046006e-08 -1.243853e-06 1.0125971e-05 
-5.1161678e-08 -1.2458382e-06 1.0134467e-05 
-4.2006928e-08 -1.2476681e-06 1.014315e-05 
-3.3161278e-08 -1.2484676e-06 1.0149016e-05 
-2.3479522e-08 -1.2499311e-06 1.0153788e-05 
-1.4060703e-08 -1.2511982e-06 1.01572e-05 
-4.62461e-09 -1.2516209e-06 1.0158908e-05 
5.2245e-09 -1.2516521e-06 1.0160168e-05 
1.4737054e-08 -1.2510711e-06 1.0157857e-05 
2.36845e-08 -1.2494293e-06 1.0155277e-05 
3.284123e-08 -1.248559e-06 1.0149738e-05 
4.154529e-08 -1.2468057e-06 1.0142965e-05 
5.127494e-08 -1.2460993e-06 1.01344785e-05 
5.979456e-08 -1.2422086e-06 1.01240075e-05 
6.8641285e-08 -1.2407384e-06 1.0112607e-05 
7.77287e-08 -1.2361348e-06 1.0098573e-05 
8.663169e-08 -1.2338136e-06 1.008443e-05 
9.573848e-08 -1.2299421e-06 1.006582e-05 
1.0476489e-07 -1.2268191e-06 1.0049564e-05 
1.1376626e-07 -1.2233728e-06 1.0027118e-05 
1.2206095e-07 -1.2192164e-06 1.0008372e-05 
1.3134817e-07 -1.21484e-06 9.983918e-06 
-1.362279e-07 -1.2523203e-06 1.0208202e-05 
-1.2671794e-07 -1.2582015e-06 1.0232953e-05 
-1.18422584e-07 -1.2620468e-06 1.02542035e-05 
-1.0890567e-07 -1.2667354e-06 1.0274675e-05 
-1.0043922e-07 -1.2695183e-06 1.0292383e-05 
-9.062874e-08 -1.2737644e-06 1.03103475e-05 
-8.147242e-08 -1.2760759e-06 1.0325513e-05 
-7.17158e-08 -1.279692e-06 1.0340158e-05 
-6.223132e-08 -1.2813646e-06 1.0352595e-05 
-5.2329277e-08 -1.2842629e-06 1.0362442e-05 
-4.2756817e-08 -1.2851075e-06 1.0371656e-05 
-3.320359e-08 -1.2870064e-06 1.0377626e-05 
-2.2622274e-08 -1.2870955e-06 1.0384073e-05 
-1.4299765e-08 -1.2890459e-06 1.0386495e-05 
-4.144418e-09 -1.2883177e-06 1.0389233e-05 
5.1492393e-09 -1.2902249e-06 1.0389678e-05 
1.5489626e-08 -1.2885432e-06 1.0387707e-05 
2.401552e-08 -1.2893055e-06 1.0385944e-05 
3.3217404e-08 -1.2868195e-06 1.03800885e-05 
4.2556636e-08 -1.2862939e-06 1.0372165e-05 
5.2362424e-08 -1.2836954e-06 1.0363274e-05 
6.2020376e-08 -1.2815359e-06 1.03520915e-05 
7.106405e-08 -1.2788304e-06 1.0339754e-05 
8.04791e-08 -1.2752437e-06 1.0325773e-05 
8.955641e-08 -1.2720404e-06 1.0310406e-05 
9.9225076e-08 -1.2677235e-06 1.029219e-05 
1.09369324e-07 -1.264249e-06 1.0273646e-05 
1.17819866e-07 -1.25993e-06 1.0251977e-05 
1.2749686e-07 -1.2555189e-06 1.0230286e-05 
1.3551845e-07 -1.2505557e-06 1.0206268e-05 
-1.4159119e-07 -1.2890705e-06 1.0437442e-05 
-1.3148576e-07 -1.2928916e-06 1.0463751e-05 
-1.2256821e-07 -1.2989419e-06 1.0485209e-05 
-1.13302626e-07 -1.3020214e-06 1.0508422e-05 
-1.0318678e-07 -1.3069765e-06 1.0525776e-05 
-9.416931e-08 -1.3096069e-06 1.0545053e-05 
-8.39674e-08 -1.3133622e-06 1.0558969e-05 
-7.446876e-08 -1.3169047e-06 1.0575438e-05 
-6.3567924e-08 -1.3195685e-06 1.0586631e-05 
-5.3614976e-08 -1.3228631e-06 1.0598409e-05 
-4.3458527e-08 -1.3252504e-06 1.060671e-05 
-3.4285534e-08 -1.3268245e-06 1.0614181e-05 
-2.3504128e-08 -1.3285143e-06 1.062029e-05 
-1.453823e-08 -1.3281158e-06 1.0623766e-05 
-4.8529714e-09 -1.3298024e-06 1.0626702e-05 
4.8144315e-09 -1.3282597e-06 1.0626748e-05 
1.497419e-08 -1.3304997e-06 1.0625312e-05 
2.4290308e-08 -1.327158e-06 1.0621424e-05 
3.3784787e-08 -1.329564e-06 1.06148145e-05 
4.378758e-08 -1.323398e-06 1.0607019e-05 
5.422236e-08 -1.3253449e-06 1.0598117e-05 
6.4112136e-08 -1.318861e-06 1.0588092e-05 
7.3633004e-08 -1.3200379e-06 1.0574508e-05 
8.278154e-08 -1.3131068e-06 1.0560026e-05 
9.3085006e-08 -1.3134614e-06 1.0543179e-05 
1.0278529e-07 -1.3060051e-06 1.05251065e-05 
1.1355842e-07 -1.305377e-06 1.05053705e-05 
1.2206758e-07 -1.2976577e-06 1.0484037e-05 
1.3235984e-07 -1.2961882e-06 1.0460502e-05 
1.4083142e-07 -1.2881044e-06 1.0436108e-05 
-1.4746459e-07 -1.3277779e-06 1.0672776e-05 
-1.3663879e-07 -1.332705e-06 1.0699907e-05 
-1.280188e-07 -1.3380325e-06 1.0722119e-05 
-1.1728639e-07 -1.3434967e-06 1.0746372e-05 
-1.0811715e-07 -1.3471366e-06 1.0764752e-05 
-9.7164516e-08 -1.352286e-06 1.07851765e-05 
-8.736261e-08 -1.3539882e-06 1.0799809e-05 
-7.6424044e-08 -1.3592876e-06 1.0816429e-05 
-6.743982e-08 -1.3594654e-06 1.0828942e-05 
-5.4959237e-08 -1.3646354e-06 1.0839943e-05 
-4.6271527e-08 -1.3639569e-06 1.0850844e-05 
-3.3874e-08 -1.3680118e-06 1.0855671e-05 
-2.6209698e-08 -1.3676552e-06 1.0864685e-05 
-1.386659e-08 -1.3699838e-06 1.0864602e-05 
-5.4110956e-09 -1.3687223e-06 1.0871184e-05 
4.860624e-09 -1.3696949e-06 1.0868522e-05 
1.5803131e-08 -1.3692621e-06 1.087028e-05 
2.5814437e-08 -1.368701e-06 1.08638815e-05 
3.6962057e-08 -1.3683145e-06 1.0858978e-05 
4.459369e-08 -1.3653219e-06 1.0850668e-05 
5.7895242e-08 -1.3644616e-06 1.0842555e-05 
6.634971e-08 -1.361323e-06 1.0831661e-05 
7.86154e-08 -1.3586883e-06 1.0818081e-05 
8.524489e-08 -1.3553087e-06 1.0801861e-05 
9.812136e-08 -1.3521063e-06 1.0785317e-05 
1.0582855e-07 -1.3476927e-06 1.0764859e-05 
1.1817531e-07 -1.3435731e-06 1.0746129e-05 
1.2583855e-07 -1.338338e-06 1.0721672e-05 
1.3732627e-07 -1.3338873e-06 1.0699534e-05 
1.4571583e-07 -1.3280717e-06 1.0671557e-05 
-1.5273282e-07 -1.3675035e-06 1.0917641e-05 
-1.4115945e-07 -1.3730668e-06 1.0940679e-05 
-1.3331127e-07 -1.377947e-06 1.0968306e-05 
-1.2217103e-07 -1.3838091e-06 1.0988002e-05 
-1.1339048e-07 -1.3884318e-06 1.10112705e-05 
-1.0160467e-07 -1.3929246e-06 1.1027785e-05 
-9.157864e-08 -1.3963815e-06 1.104716e-05 
-7.993858e-08 -1.3997077e-06 1.1060529e-05 
-7.004033e-08 -1.4015728e-06 1.1077985e-05 
-5.8791287e-08 -1.4046446e-06 1.1085643e-05 
-4.965441e-08 -1.4048746e-06 1.1101526e-05 
-3.7201374e-08 -1.4090386e-06 1.1103954e-05 
-2.8593718e-08 -1.4108041e-06 1.11189365e-05 
-1.4889473e-08 -1.412847e-06 1.1114185e-05 
-5.2857274e-09 -1.4123078e-06 1.1125641e-05 
5.7658696e-09 -1.4126048e-06 1.1115447e-05 
1.8245025e-08 -1.412373e-06 1.112123e-05 
2.7578956e-08 -1.4113042e-06 1.1111532e-05 
4.1469264e-08 -1.4098932e-06 1.1108878e-05 
4.7363947e-08 -1.40766e-06 1.1098177e-05 
6.0229965e-08 -1.4064505e-06 1.1090221e-05 
6.8892625e-08 -1.4032004e-06 1.1077946e-05 
8.059172e-08 -1.4012535e-06 1.1064901e-05 
9.0381434e-08 -1.3970298e-06 1.1048629e-05 
1.0132382e-07 -1.3941356e-06 1.1032086e-05 
1.11834225e-07 -1.3892765e-06 1.10116425e-05 
1.2163648e-07 -1.3853513e-06 1.0992449e-05 
1.315298e-07 -1.3794712e-06 1.0968264e-05 
1.4221332e-07 -1.3746101e-06 1.0944597e-05 
1.5187521e-07 -1.3685034e-06 1.0916145e-05 
-1.5740703e-07 -1.4095326e-06 1.1166598e-05 
-1.4762082e-07 -1.4156133e-06 1.1194389e-05 
-1.3653244e-07 -1.4207952e-06 1.1219313e-05 
-1.270758e-07 -1.4266403e-06 1.12429825e-05 
-1.16077835e-07 -1.4307784e-06 1.1264657e-05 
-1.04967924e-07 -1.4359979e-06 1.1283486e-05 
-9.404768e-08 -1.4392881e-06 1.1301723e-05 
-8.247469e-08 -1.4433057e-06 1.1317078e-05 
-7.079676e-08 -1.4455272e-06 1.1331503e-05 
-5.983966e-08 -1.4478087e-06 1.134422e-05 
-5.2392952e-08 -1.4498538e-06 1.13538545e-05 
-4.1076987e-08 -1.4527209e-06 1.13622045e-05 
-3.2615745e-08 -1.4543334e-06 1.1365452e-05 
-1.638422e-08 -1.4552594e-06 1.1373721e-05 
-6.351385e-09 -1.4557525e-06 1.1374323e-05 
5.452563e-09 -1.4564197e-06 1.1377658e-05 
1.9099254e-08 -1.4545762e-06 1.137098e-05 
2.8281505e-08 -1.4541405e-06 1.1371554e-05 
4.1659398e-08 -1.4533135e-06 1.13627775e-05 
5.1099356e-08 -1.4515696e-06 1.1359388e-05 
6.1470416e-08 -1.4483288e-06 1.1346175e-05 
7.2543955e-08 -1.4468909e-06 1.1335425e-05 
8.26398e-08 -1.4428629e-06 1.1320118e-05 
9.349779e-08 -1.4405978e-06 1.130414e-05 
1.0406828e-07 -1.4359174e-06 1.12861235e-05 
1.1566619e-07 -1.432253e-06 1.1265383e-05 
1.256968e-07 -1.4270446e-06 1.1243783e-05 
1.36373e-07 -1.4218216e-06 1.121986e-05 
1.4646005e-07 -1.4167732e-06 1.1192467e-05 
1.5764665e-07 -1.4106762e-06 1.1166026e-05 
-1.6462738e-07 -1.4533896e-06 1.14239165e-05 
-1.5255443e-07 -1.4587853e-06 1.14516415e-05 
-1.4261533e-07 -1.4647554e-06 1.1479009e-05 
-1.3103063e-07 -1.4700439e-06 1.1503258e-05 
-1.2027257e-07 -1.4753741e-06 1.1526209e-05 
-1.08743244e-07 -1.4797228e-06 1.15471785e-05 
-9.734951e-08 -1.4843499e-06 1.1565731e-05 
-8.666741e-08 -1.4873401e-06 1.1581714e-05 
-7.401856e-08 -1.4912524e-06 1.159755e-05 
-6.3456724e-08 -1.493811e-06 1.1608662e-05 
-5.5504213e-08 -1.4967978e-06 1.162069e-05 
-4.3743647e-08 -1.497336e-06 1.1626274e-05 
-3.3375585e-08 -1.4991496e-06 1.1633907e-05 
-1.7238975e-08 -1.4996135e-06 1.1639684e-05 
-8.180578e-09 -1.500212e-06 1.1641337e-05 
6.81446e-09 -1.5001021e-06 1.1643408e-05 
2.034298e-08 -1.5004333e-06 1.1638873e-05 
2.9371385e-08 -1.5003304e-06 1.1638443e-05 
4.2809425e-08 -1.4975705e-06 1.1632218e-05 
5.410653e-08 -1.4968172e-06 1.1624211e-05 
6.5616454e-08 -1.4938341e-06 1.1613419e-05 
7.622703e-08 -1.4920586e-06 1.159745e-05 
8.745615e-08 -1.4883285e-06 1.1584133e-05 
9.765742e-08 -1.485817e-06 1.156605e-05 
1.09069454e-07 -1.4808351e-06 1.154789e-05 
1.1990782e-07 -1.4773381e-06 1.15276835e-05 
1.3151629e-07 -1.4715831e-06 1.1504698e-05 
1.4135699e-07 -1.4670067e-06 1.1481403e-05 
1.5284387e-07 -1.4609211e-06 1.1453356e-05 
1.6266952e-07 -1.4549554e-06 1.14261375e-05 
-1.707478e-07 -1.4973525e-06 1.1691177e-05 
-1.5946365e-07 -1.5050301e-06 1.1720993e-05 
-1.4880825e-07 -1.5094919e-06 1.1748978e-05 
-1.3684223e-07 -1.5170069e-06 1.1774815e-05 
-1.2568816e-07 -1.5201318e-06 1.1797392e-05 
-1.13211534e-07 -1.5270172e-06 1.1819705e-05 
-1.0227913e-07 -1.5292974e-06 1.1837937e-05 
-8.960846e-08 -1.5351877e-06 1.1856083e-05 
-7.894616e-08 -1.5370822e-06 1.1870888e-05 
-6.614546e-08 -1.5422074e-06 1.1884456e-05 
-5.5990768e-08 -1.5435827e-06 1.1895064e-05 
-4.490576e-08 -1.545091e-06 1.1903042e-05 
-3.29077e-08 -1.5456066e-06 1.1907899e-05 
-1.7196683e-08 -1.5470453e-06 1.1915464e-05 
-6.7193326e-09 -1.5463006e-06 1.1916332e-05 
6.2067045e-09 -1.5484593e-06 1.1915908e-05 
2.0235376e-08 -1.5473735e-06 1.191357e-05 
3.1278034e-08 -1.5477174e-06 1.1912775e-05 
4.4504993e-08 -1.5430998e-06 1.19051165e-05 
5.4411835e-08 -1.5434638e-06 1.1895937e-05 
6.721499e-08 -1.5400263e-06 1.188515e-05 
7.800705e-08 -1.5384e-06 1.1870983e-05 
8.9837066e-08 -1.5344385e-06 1.1855934e-05 
1.0071081e-07 -1.5307842e-06 1.1838312e-05 
1.13804525e-07 -1.5261799e-06 1.1819187e-05 
1.2470974e-07 -1.5215358e-06 1.1797792e-05 
1.3717658e-07 -1.516022e-06 1.1773817e-05 
1.474144e-07 -1.5111342e-06 1.1747922e-05 
1.5946968e-07 -1.504637e-06 1.17196705e-05 
1.6974468e-07 -1.4997242e-06 1.1690493e-05 
-1.7777444e-07 -1.5451851e-06 1.1964496e-05 
-1.6611904e-07 -1.5516471e-06 1.1995553e-05 
-1.5482127e-07 -1.5583453e-06 1.2025604e-05 
-1.4226026e-07 -1.563806e-06 1.2051483e-05 
-1.3082573e-07 -1.5693477e-06 1.2076945e-05 
-1.1790736e-07 -1.5740164e-06 1.2098576e-05 
-1.06722766e-07 -1.5788942e-06 1.2119739e-05 
-9.324039e-08 -1.5827454e-06 1.213569e-05 
-8.3260694e-08 -1.5867904e-06 1.2152749e-05 
-6.9441036e-08 -1.589638e-06 1.2165953e-05 
-5.9378802e-08 -1.5933917e-06 1.21794155e-05 
-4.423812e-08 -1.5950407e-06 1.2186721e-05 
-3.3555096e-08 -1.5959432e-06 1.2196861e-05 
-1.8630445e-08 -1.5969295e-06 1.2195139e-05 
-7.3601143e-09 -1.5985888e-06 1.2205782e-05 
6.2442354e-09 -1.5985809e-06 1.2201273e-05 
2.1063286e-08 -1.5981364e-06 1.2202145e-05 
3.318447e-08 -1.5973492e-06 1.2192723e-05 
4.676287e-08 -1.5962252e-06 1.2190126e-05 
5.769145e-08 -1.5937036e-06 1.21751345e-05 
7.1017794e-08 -1.5905573e-06 1.21686135e-05 
8.081597e-08 -1.5886028e-06 1.2150809e-05 
9.421487e-08 -1.5843821e-06 1.2137922e-05 
1.04416785e-07 -1.5807527e-06 1.2118553e-05 
1.188204e-07 -1.5755563e-06 1.2099868e-05 
1.2924829e-07 -1.5709393e-06 1.20768245e-05 
1.4252575e-07 -1.5653038e-06 1.2051747e-05 
1.5340228e-07 -1.5598513e-06 1.20261375e-05 
1.6574582e-07 -1.5525675e-06 1.1996311e-05 
1.7698562e-07 -1.5466774e-06 1.1966606e-05 
-1.858296e-07 -1.5951147e-06 1.2248949e-05 
-1.7379875e-07 -1.6031152e-06 1.22786805e-05 
-1.6176148e-07 -1.6088852e-06 1.23108985e-05 
-1.4860913e-07 -1.6152371e-06 1.2336198e-05 
-1.3671246e-07 -1.6197732e-06 1.2363353e-05 
-1.2395192e-07 -1.6252219e-06 1.2385566e-05 
-1.10815385e-07 -1.6297074e-06 1.2408413e-05 
-9.844487e-08 -1.6340448e-06 1.2425799e-05 
-8.654076e-08 -1.6382648e-06 1.244416e-05 
-7.2920315e-08 -1.6408133e-06 1.2456472e-05 
-6.174223e-08 -1.6442087e-06 1.2471762e-05 
-4.643555e-08 -1.6456761e-06 1.2478004e-05 
-3.4231633e-08 -1.6493049e-06 1.2489786e-05 
-1.9199575e-08 -1.6477826e-06 1.24886465e-05 
-6.886978e-09 -1.6510227e-06 1.249781e-05 
7.369664e-09 -1.6486669e-06 1.2490977e-05 
2.0562368e-08 -1.6496498e-06 1.2495863e-05 
3.4838536e-08 -1.6483598e-06 1.2484141e-05 
4.9009543e-08 -1.6467839e-06 1.2482841e-05 
6.081996e-08 -1.6438032e-06 1.2466856e-05 
7.357715e-08 -1.6418594e-06 1.2460023e-05 
8.5283496e-08 -1.637911e-06 1.2441168e-05 
9.8217846e-08 -1.6345036e-06 1.2427217e-05 
1.10016e-07 -1.6293059e-06 1.2406068e-05 
1.2280935e-07 -1.6252114e-06 1.2386375e-05 
1.350689e-07 -1.619349e-06 1.2362773e-05 
1.4775304e-07 -1.6144023e-06 1.2337279e-05 
1.5986879e-07 -1.6080978e-06 1.2310111e-05 
1.7257852e-07 -1.6013377e-06 1.2279676e-05 
1.8388522e-07 -1.5944265e-06 1.2247768e-05 
-1.9298068e-07 -1.647391e-06 1.2538858e-05 
-1.8061183e-07 -1.6548387e-06 1.2573647e-05 
-1.6751855e-07 -1.6613806e-06 1.26025825e-05 
-1.5449491e-07 -1.6669798e-06 1.2633568e-05 
-1.4209849e-07 -1.6726727e-06 1.265816e-05 
-1.2827901e-07 -1.6775784e-06 1.26851355e-05 
-1.1551992e-07 -1.6826514e-06 1.270447e-05 
-1.0158351e-07 -1.6864176e-06 1.2726764e-05 
-8.830983e-08 -1.6903249e-06 1.2741939e-05 
-7.5675274e-08 -1.6929035e-06 1.2758472e-05 
-6.272532e-08 -1.6957819e-06 1.2769345e-05 
-4.8950987e-08 -1.6978903e-06 1.2780595e-05 
-3.3826893e-08 -1.6990149e-06 1.2786521e-05 
-2.0881586e-08 -1.7013417e-06 1.2792894e-05 
-7.885163e-09 -1.7015146e-06 1.2792439e-05 
6.9256885e-09 -1.7029719e-06 1.2794014e-05 
2.0238858e-08 -1.7008747e-06 1.279219e-05 
3.495761e-08 -1.700679e-06 1.2787762e-05 
4.782857e-08 -1.6977378e-06 1.2780373e-05 
6.260024e-08 -1.696033e-06 1.2768473e-05 
7.444563e-08 -1.6928204e-06 1.275769e-05 
8.8402565e-08 -1.689671e-06 1.2740734e-05 
1.0086876e-07 -1.6858864e-06 1.2725007e-05 
1.14750186e-07 -1.6816116e-06 1.2704553e-05 
1.2748973e-07 -1.6767049e-06 1.2683055e-05 
1.4119067e-07 -1.6721434e-06 1.2659231e-05 
1.5351338e-07 -1.6661108e-06 1.26322275e-05 
1.6693133e-07 -1.6605586e-06 1.2604208e-05 
1.7949235e-07 -1.6536051e-06 1.2572626e-05 
1.9239204e-07 -1.6464658e-06 1.2538325e-05 
-2.0015597e-07 -1.7002626e-06 1.2840694e-05 
-1.8783894e-07 -1.7102012e-06 1.2875733e-05 
-1.7386341e-07 -1.7147975e-06 1.2907233e-05 
-1.604351e-07 -1.7237719e-06 1.2938937e-05 
-1.4777832e-07 -1.72699e-06 1.2965213e-05 
-1.3366328e-07 -1.7349481e-06 1.2993185e-05 
-1.2046961e-07 -1.7371038e-06 1.3013185e-05 
-1.06214344e-07 -1.7442677e-06 1.3035814e-05 
-9.327351e-08 -1.7458364e-06 1.305122e-05 
-7.880059e-08 -1.750926e-06 1.3067971e-05 
-6.630938e-08 -1.7522971e-06 1.3079294e-05 
-5.0940034e-08 -1.7552019e-06 1.3090696e-05 
-3.661043e-08 -1.7559886e-06 1.3097954e-05 
-2.1097378e-08 -1.7579848e-06 1.3104404e-05 
-8.401173e-09 -1.7588741e-06 1.3106126e-05 
7.539526e-09 -1.7587547e-06 1.3105246e-05 
2.156085e-08 -1.7576266e-06 1.3105306e-05 
3.7167723e-08 -1.7555059e-06 1.3097215e-05 
5.0391748e-08 -1.754553e-06 1.3090925e-05 
6.586797e-08 -1.7517716e-06 1.3077915e-05 
7.8499504e-08 -1.7491017e-06 1.3067543e-05 
9.3018905e-08 -1.7452576e-06 1.3050281e-05 
1.06207416e-07 -1.741937e-06 1.3034352e-05 
1.1991818e-07 -1.7368417e-06 1.3012671e-05 
1.3350439e-07 -1.7321826e-06 1.2991291e-05 
1.4646135e-07 -1.7270354e-06 1.29653545e-05 
1.6122952e-07 -1.7211262e-06 1.2938093e-05 
1.7323882e-07 -1.7148119e-06 1.2908633e-05 
1.8769069e-07 -1.7077177e-06 1.2876175e-05 
1.9889279e-07 -1.6999882e-06 1.28407955e-05 
-2.0787738e-07 -1.7575164e-06 1.31509505e-05 
-1.9514724e-07 -1.7638836e-06 1.3186824e-05 
-1.8094013e-07 -1.772217e-06 1.3221275e-05 
-1.6563666e-07 -1.7795504e-06 1.325312e-05 
-1.5296598e-07 -1.7847373e-06 1.3282038e-05 
-1.3781718e-07 -1.7923114e-06 1.3309832e-05 
-1.2452959e-07 -1.794503e-06 1.3332101e-05 
-1.0958716e-07 -1.8020453e-06 1.3354268e-05 
-9.623253e-08 -1.8016042e-06 1.3371529e-05 
-8.0813834e-08 -1.8089107e-06 1.33881795e-05 
-6.73321e-08 -1.8069023e-06 1.3400694e-05 
-5.1796604e-08 -1.8145247e-06 1.341151e-05 
-3.720686e-08 -1.8110271e-06 1.3419212e-05 
-2.1904299e-08 -1.8190775e-06 1.3424805e-05 
-8.515826e-09 -1.815116e-06 1.3427436e-05 
7.3152364e-09 -1.8198394e-06 1.3426755e-05 
2.3471799e-08 -1.8164525e-06 1.3425796e-05 
3.6721403e-08 -1.8174073e-06 1.3418594e-05 
5.24685e-08 -1.8144939e-06 1.3411411e-05 
6.587604e-08 -1.8124009e-06 1.33988715e-05 
8.1533535e-08 -1.8085115e-06 1.3386554e-05 
9.573718e-08 -1.804367e-06 1.336955e-05 
1.10888465e-07 -1.7991835e-06 1.3352045e-05 
1.2464785e-07 -1.7942424e-06 1.3330658e-05 
1.3855629e-07 -1.7879761e-06 1.3307967e-05 
1.525668e-07 -1.7836577e-06 1.3281494e-05 
1.6583236e-07 -1.7765465e-06 1.3252268e-05 
1.8187623e-07 -1.7714716e-06 1.322235e-05 
1.9355983e-07 -1.7636603e-06 1.3188362e-05 
2.0859017e-07 -1.7556457e-06 1.315232e-05 
-2.1622918e-07 -1.8121929e-06 1.3471365e-05 
-2.0242248e-07 -1.8194943e-06 1.3512243e-05 
-1.8882025e-07 -1.8288443e-06 1.35449045e-05 
-1.7290529e-07 -1.8350834e-06 1.3580785e-05 
-1.6161412e-07 -1.8430766e-06 1.3607911e-05 
-1.4323957e-07 -1.8475358e-06 1.3635156e-05 
-1.3154724e-07 -1.8542994e-06 1.3659942e-05 
-1.1470205e-07 -1.8570624e-06 1.3680157e-05 
-1.0186882e-07 -1.8628862e-06 1.3703516e-05 
-8.44733e-08 -1.8645156e-06 1.3715613e-05 
-7.0784736e-08 -1.8691778e-06 1.3734126e-05 
-5.275827e-08 -1.8696251e-06 1.3740555e-05 
-3.9777362e-08 -1.8738157e-06 1.3754582e-05 
-2.1764919e-08 -1.8725033e-06 1.375538e-05 
-9.6860475e-09 -1.8747141e-06 1.3763445e-05 
9.049415e-09 -1.8733306e-06 1.3759091e-05 
2.3604002e-08 -1.8745001e-06 1.3760688e-05 
4.0395264e-08 -1.8723532e-06 1.375312e-05 
5.5186618e-08 -1.8718093e-06 1.3746103e-05 
6.8240844e-08 -1.8686555e-06 1.3732978e-05 
8.430813e-08 -1.8668075e-06 1.372034e-05 
9.8957166e-08 -1.8622261e-06 1.3702824e-05 
1.1587667e-07 -1.8588935e-06 1.3684608e-05 
1.2918656e-07 -1.8533506e-06 1.3660712e-05 
1.4484309e-07 -1.8486661e-06 1.3638538e-05 
1.5840814e-07 -1.841955e-06 1.3608231e-05 
1.7325263e-07 -1.8352675e-06 1.3581704e-05 
1.8706834e-07 -1.8278996e-06 1.3543911e-05 
2.0181781e-07 -1.8198057e-06 1.3513967e-05 
2.1587184e-07 -1.8123731e-06 1.3468871e-05 
-2.2916132e-07 -1.8714165e-06 1.3807623e-05 
-2.1274698e-07 -1.8809859e-06 1.3838926e-05 
-2.0096115e-07 -1.8887893e-06 1.3882646e-05 
-1.8111949e-07 -1.8965106e-06 1.3910396e-05 
-1.6919876e-07 -1.9034636e-06 1.394749e-05 
-1.49295e-07 -1.9103447e-06 1.3967942e-05 
-1.3803688e-07 -1.915332e-06 1.4000586e-05 
-1.1853606e-07 -1.9207926e-06 1.4017541e-05 
-1.0484888e-07 -1.9256202e-06 1.4045841e-05 
-8.612031e-08 -1.9285137e-06 1.40583525e-05 
-7.246253e-08 -1.9310426e-06 1.4081717e-05 
-5.334642e-08 -1.9333816e-06 1.40872935e-05 
-3.8155846e-08 -1.9360332e-06 1.410536e-05 
-2.3520826e-08 -1.9367799e-06 1.4103739e-05 
-5.798327e-09 -1.9376562e-06 1.4115856e-05 
8.343946e-09 -1.9370846e-06 1.4110947e-05 
2.847338e-08 -1.9374581e-06 1.41107785e-05 
4.092003e-08 -1.934917e-06 1.4099003e-05 
6.0291924e-08 -1.9334518e-06 1.4091614e-05 
7.194275e-08 -1.9316544e-06 1.4077879e-05 
8.9563095e-08 -1.9286858e-06 1.4063507e-05 
1.0410106e-07 -1.925221e-06 1.4047535e-05 
1.202032e-07 -1.9200595e-06 1.4026828e-05 
1.3360727e-07 -1.9160832e-06 1.4003477e-05 
1.489441e-07 -1.9092058e-06 1.3977635e-05 
1.6523992e-07 -1.9037228e-06 1.3948458e-05 
1.7919557e-07 -1.8955479e-06 1.39184e-05 
1.9509959e-07 -1.8884914e-06 1.3880984e-05 
2.0902414e-07 -1.8792857e-06 1.3845768e-05 
2.2370963e-07 -1.8711896e-06 1.38010355e-05 
-2.3531817e-07 -1.9328736e-06 1.4148443e-05 
-2.2133494e-07 -1.9415006e-06 1.4188819e-05 
-2.0576474e-07 -1.950558e-06 1.4225758e-05 
-1.8969429e-07 -1.958673e-06 1.42611825e-05 
-1.7498459e-07 -1.9668657e-06 1.4290314e-05 
-1.562401e-07 -1.9737533e-06 1.4320509e-05 
-1.4214575e-07 -1.9799847e-06 1.4343538e-05 
-1.2382455e-07 -1.984943e-06 1.4369499e-05 
-1.0852854e-07 -1.9899064e-06 1.4386145e-05 
-9.187548e-08 -1.9938223e-06 1.4409545e-05 
-7.436296e-08 -1.9975023e-06 1.4420434e-05 
-5.9067922e-08 -2.0002758e-06 1.4438822e-05 
-3.898174e-08 -2.001408e-06 1.4446071e-05 
-2.624894e-08 -2.003373e-06 1.445687e-05 
-8.677674e-09 -2.0035125e-06 1.4459738e-05 
7.547257e-09 -2.0035206e-06 1.4459843e-05 
2.5643928e-08 -2.001866e-06 1.4456181e-05 
4.378603e-08 -2.00239e-06 1.4448644e-05 
5.787497e-08 -1.9990523e-06 1.4437961e-05 
7.6521886e-08 -1.99834e-06 1.4426842e-05 
9.0677645e-08 -1.9938955e-06 1.440824e-05 
1.0986936e-07 -1.991231e-06 1.4394871e-05 
1.2456215e-07 -1.984872e-06 1.4368179e-05 
1.419009e-07 -1.9803845e-06 1.4351661e-05 
1.5680163e-07 -1.9735544e-06 1.431974e-05 
1.7190237e-07 -1.9678919e-06 1.4296158e-05 
1.8862534e-07 -1.960312e-06 1.4261014e-05 
2.0312174e-07 -1.951455e-06 1.4229045e-05 
2.2047642e-07 -1.943218e-06 1.418907e-05 
2.335003e-07 -1.9316558e-06 1.4148557e-05 
-2.4491987e-07 -1.9997383e-06 1.4500138e-05 
-2.2857711e-07 -2.0080051e-06 1.4542206e-05 
-2.1236977e-07 -2.0188302e-06 1.4582344e-05 
-1.9526652e-07 -2.025491e-06 1.461962e-05 
-1.801281e-07 -2.0358027e-06 1.465317e-05 
-1.621049e-07 -2.039966e-06 1.4685433e-05 
-1.472795e-07 -2.0498542e-06 1.4714018e-05 
-1.3001755e-07 -2.0509174e-06 1.4737641e-05 
-1.1409091e-07 -2.0595558e-06 1.4760949e-05 
-9.6970716e-08 -2.0599593e-06 1.4775237e-05 
-7.965531e-08 -2.0663713e-06 1.4793032e-05 
-6.2812205e-08 -2.0671189e-06 1.4803029e-05 
-4.451985e-08 -2.069646e-06 1.48156505e-05 
-2.723489e-08 -2.0714638e-06 1.482331e-05 
-9.500525e-09 -2.0710918e-06 1.4827679e-05 
9.195787e-09 -2.0725906e-06 1.4827448e-05 
2.6491733e-08 -2.0698153e-06 1.4824117e-05 
4.5376694e-08 -2.0711364e-06 1.4816118e-05 
6.1956655e-08 -2.0663463e-06 1.4807846e-05 
7.947024e-08 -2.0668137e-06 1.4792768e-05 
9.5570115e-08 -2.0605107e-06 1.4779367e-05 
1.1326436e-07 -2.0588523e-06 1.4756202e-05 
1.3101638e-07 -2.0521159e-06 1.4736788e-05 
1.4623406e-07 -2.0473537e-06 1.47104365e-05 
1.6393179e-07 -2.040439e-06 1.4682503e-05 
1.787283e-07 -2.0330715e-06 1.4654573e-05 
1.9741077e-07 -2.0251057e-06 1.4619605e-05 
2.1107614e-07 -2.016427e-06 1.458511e-05 
2.2920466e-07 -2.0069526e-06 1.4543169e-05 
2.4352124e-07 -1.9973934e-06 1.4499867e-05 
-2.5599263e-07 -2.0662505e-06 1.4864634e-05 
-2.3918133e-07 -2.0748514e-06 1.4907922e-05 
-2.2290533e-07 -2.0852974e-06 1.4950007e-05 
-2.0491058e-07 -2.0947227e-06 1.4988351e-05 
-1.8992783e-07 -2.1025642e-06 1.5022998e-05 
-1.6971416e-07 -2.111398e-06 1.5056616e-05 
-1.5510511e-07 -2.1174938e-06 1.5084965e-05 
-1.3445634e-07 -2.1247777e-06 1.51120175e-05 
-1.18834656e-07 -2.1287365e-06 1.5133681e-05 
-9.79779e-08 -2.1345988e-06 1.5153683e-05 
-8.229206e-08 -2.1378285e-06 1.516979e-05 
-6.0894514e-08 -2.141206e-06 1.5184458e-05 
-4.536193e-08 -2.141901e-06 1.5194829e-05 