# OOMMF: rectangular mesh v1.0
# Segment count: 1
# Begin: Segment
# Begin: Header
# Desc: Time (s) :  0
# Title: m
# meshtype: rectangular
# meshunit: m
# xbase: 2.5e-09
# ybase: 2.5e-09
# zbase: 2.5e-09
# xstepsize: 5e-09
# ystepsize: 5e-09
# zstepsize: 5e-09
# xmin: 0
# ymin: 0
# zmin: 0
# xmax: 6.000000000000001e-08
# ymax: 6.000000000000001e-08
# zmax: 1e-08
# xnodes: 12
# ynodes: 12
# znodes: 2
# ValueRangeMinMag: 1e-08
# ValueRangeMaxMag: 1
# valueunit: 
# valuemultiplier: 1
# End: Header
# Begin: Data Text
-0.9917805 -0.12348345 -0.03351628 
-0.9969604 -0.076531775 -0.014592078 
-0.998929 -0.04587222 -0.006044365 
-0.99958473 -0.028683627 -0.0027568734 
-0.99987 -0.016084969 -0.0011784226 
-0.9999972 -0.0023770442 0.0001918006 
-0.9999308 0.011605625 0.0019353213 
-0.9999429 0.010113475 0.0034604466 
-0.9988819 -0.047244325 0.0017655933 
-0.9839868 -0.17823036 -0.0019830142 
-0.93862617 -0.34493253 -0.0015823595 
-0.89343584 -0.4490186 0.012447562 
-0.997558 -0.060340725 -0.035173524 
-0.99897313 -0.04319995 -0.013661835 
-0.9994897 -0.03157203 -0.004856627 
-0.99968755 -0.02492202 -0.0019549537 
-0.99983406 -0.018205568 -0.0007051017 
-0.99997383 -0.00719917 0.0007669709 
-0.99994725 0.009457053 0.004017307 
-0.99971515 0.021737952 0.00985232 
-0.9991762 -0.039811917 0.007878208 
-0.97619706 -0.216873 0.0023282962 
-0.88076925 -0.4735405 0.0022089896 
-0.8144533 -0.5798941 0.019717002 
-0.99919003 0.020183668 -0.0348135 
-0.9999058 0.0035240958 -0.013262889 
-0.99993277 -0.010701157 -0.004477983 
-0.99981016 -0.019422483 -0.0016043697 
-0.9997446 -0.022596963 -0.00030458235 
-0.9997998 -0.019941939 0.0016738148 
-0.9999107 -0.011077199 0.0074764597 
-0.99974173 0.0038860035 0.02239645 
0 0 0 
0 0 0 
-0.74062234 -0.6719197 0.0016042145 
-0.7162906 -0.69739395 0.023865886 
-0.99568963 0.08692647 -0.032342575 
-0.9991472 0.0390982 -0.013277822 
-0.9999774 0.004761558 -0.004753641 
-0.999875 -0.015736524 -0.0015132641 
-0.9996239 -0.027423851 0.000193048 
-0.9993951 -0.03467438 0.0026841387 
-0.9989953 -0.04380573 0.009462433 
-0.9976312 -0.063671745 0.026035102 
0 0 0 
0 0 0 
-0.6971855 -0.71677023 0.01314911 
-0.68983215 -0.72318 0.03379835 
0 0 0 
0 0 0 
0 0 0 
0 0 0 
0 0 0 
0 0 0 
0 0 0 
0 0 0 
0 0 0 
0 0 0 
0 0 0 
0 0 0 
0 0 0 
0 0 0 
0 0 0 
0 0 0 
0 0 0 
0 0 0 
0 0 0 
0 0 0 
0 0 0 
0 0 0 
0 0 0 
0 0 0 
0 0 0 
0 0 0 
0 0 0 
0 0 0 
0 0 0 
0 0 0 
0 0 0 
0 0 0 
0 0 0 
0 0 0 
0 0 0 
0 0 0 
0 0 0 
0 0 0 
0 0 0 
0 0 0 
0 0 0 
0 0 0 
0 0 0 
0 0 0 
0 0 0 
0 0 0 
0 0 0 
0 0 0 
0.9969824 -0.073488496 0.025010418 
0.99122316 -0.13216792 0.0028817444 
0.97356546 -0.22813499 -0.011168663 
0.92839974 -0.37086326 -0.023115763 
0.8355781 -0.5482333 -0.035351563 
0.69578725 -0.7167876 -0.045779243 
0.54677296 -0.8356879 -0.051625956 
0.44049838 -0.8961625 -0.05342443 
0 0 0 
0 0 0 
-0.4745458 0.88013154 0.013218066 
-0.49270055 0.8696625 0.030552017 
0.98894787 -0.14488265 0.031484123 
0.9855531 -0.16916049 0.008359766 
0.9699798 -0.24315059 -0.0041238195 
0.92510384 -0.37947378 -0.013517272 
0.82192117 -0.569104 -0.02379574 
0.6438782 -0.76437896 -0.033846743 
0.42008016 -0.90657514 -0.040672306 
0.21868931 -0.9747673 -0.044762872 
0 0 0 
0 0 0 
-0.57614225 0.81734455 -0.0028235826 
-0.54547113 0.83795154 0.017277166 
0.9762972 -0.21354933 0.035222057 
0.9789883 -0.20346943 0.013499565 
0.9689897 -0.24708542 0.002805736 
0.930455 -0.36638063 -0.004326413 
0.825494 -0.56426156 -0.01298328 
0.59981024 -0.79979 -0.02374277 
0.22857627 -0.97295487 -0.0333423 
-0.27355748 -0.96105325 -0.03928237 
-0.8717715 -0.48876134 -0.033570856 
-0.9973094 0.07119899 -0.017456347 
-0.83346593 0.5525449 -0.005369083 
-0.7082425 0.7058534 0.012790114 
0.96603733 -0.25575745 0.036879115 
0.9758242 -0.21772394 0.019063635 
0.97161734 -0.23631087 0.010811375 
0.9426431 -0.3337289 0.007003454 
0.85185707 -0.5237657 0.003030267 
0.6148129 -0.7886654 -0.0034740004 
0.14118291 -0.9899198 -0.011232226 
-0.46939033 -0.8828476 -0.015906755 
-0.9053555 -0.42440346 -0.014595627 
-0.99921453 0.03819088 -0.010573817 
-0.9218549 0.38747567 -0.0067984173 
-0.82787836 0.5608745 0.0061033075 
-0.99178046 -0.12348345 0.03351628 
-0.99696046 -0.07653178 0.014592075 
-0.998929 -0.04587222 0.0060443636 
-0.99958473 -0.028683629 0.0027568727 
-0.99987 -0.016084969 0.0011784221 
-0.9999972 -0.0023770414 -0.00019179906 
-0.9999308 0.011605625 -0.0019353185 
-0.9999429 0.010113475 -0.0034604443 
-0.9988819 -0.04724433 -0.0017655895 
-0.9839868 -0.17823036 0.0019830172 
-0.93862617 -0.34493253 0.0015823612 
-0.8934358 -0.44901857 -0.012447562 
-0.99755794 -0.06034072 0.03517352 
-0.99897313 -0.04319995 0.013661832 
-0.9994897 -0.03157203 0.0048566265 
-0.9996875 -0.02492202 0.0019549525 
-0.999834 -0.018205568 0.00070510164 
-0.99997383 -0.0071991696 -0.0007669691 
-0.99994725 0.009457052 -0.004017305 
-0.99971515 0.021737954 -0.009852318 
-0.99917614 -0.03981192 -0.007878204 
-0.97619706 -0.21687302 -0.0023282932 
-0.8807693 -0.47354057 -0.0022089854 
-0.81445324 -0.5798941 -0.019716999 
-0.99919 0.020183666 0.034813497 
-0.9999058 0.0035240937 0.013262887 
-0.9999328 -0.010701157 0.004477984 
-0.9998101 -0.01942248 0.0016043709 
-0.99974465 -0.022596965 0.00030458305 
-0.9997997 -0.019941939 -0.0016738129 
-0.9999107 -0.011077199 -0.007476458 
-0.9997416 0.0038860047 -0.022396445 
0 0 0 
0 0 0 
-0.74062234 -0.6719197 -0.0016042083 
-0.71629053 -0.69739395 -0.023865882 
-0.99568963 0.08692647 0.032342575 
-0.99914724 0.0390982 0.013277822 
-0.9999774 0.0047615594 0.0047536427 
-0.9998751 -0.015736524 0.0015132668 
-0.9996239 -0.027423851 -0.0001930462 
-0.99939513 -0.03467438 -0.0026841362 
-0.99899524 -0.043805726 -0.00946243 
-0.99763125 -0.063671745 -0.026035104 
0 0 0 
0 0 0 
-0.6971855 -0.71677023 -0.01314911 
-0.68983215 -0.72318 -0.033798352 
0 0 0 
0 0 0 
0 0 0 
0 0 0 
0 0 0 
0 0 0 
0 0 0 
0 0 0 
0 0 0 
0 0 0 
0 0 0 
0 0 0 
0 0 0 
0 0 0 
0 0 0 
0 0 0 
0 0 0 
0 0 0 
0 0 0 
0 0 0 
0 0 0 
0 0 0 
0 0 0 
0 0 0 
0 0 0 
0 0 0 
0 0 0 
0 0 0 
0 0 0 
0 0 0 
0 0 0 
0 0 0 
0 0 0 
0 0 0 
0 0 0 
0 0 0 
0 0 0 
0 0 0 
0 0 0 
0 0 0 
0 0 0 
0 0 0 
0 0 0 
0 0 0 
0 0 0 
0 0 0 
0 0 0 
0 0 0 
0.9969824 -0.073488496 -0.025010414 
0.99122316 -0.13216792 -0.0028817477 
0.97356546 -0.22813497 0.01116866 
0.9283998 -0.37086326 0.023115763 
0.8355781 -0.5482333 0.03535156 
0.6957872 -0.7167876 0.045779236 
0.5467729 -0.8356878 0.051625956 
0.44049832 -0.8961624 0.053424425 
0 0 0 
0 0 0 
-0.47454584 0.8801316 -0.013218063 
-0.49270052 0.86966246 -0.030552005 
0.98894787 -0.14488263 -0.031484123 
0.98555315 -0.16916049 -0.00835977 
0.96997976 -0.24315056 0.0041238144 
0.9251038 -0.37947375 0.013517271 
0.8219212 -0.5691041 0.023795743 
0.6438782 -0.764379 0.03384674 
0.42008013 -0.9065751 0.0406723 
0.21868928 -0.97476727 0.044762865 
0 0 0 
0 0 0 
-0.57614225 0.81734455 0.0028235833 
-0.5454712 0.8379516 -0.01727716 
0.97629714 -0.2135493 -0.035222057 
0.97898835 -0.20346944 -0.013499568 
0.9689897 -0.24708542 -0.0028057413 
0.930455 -0.36638063 0.0043264106 
0.82549405 -0.5642616 0.012983286 
0.59981024 -0.79979 0.023742775 
0.22857627 -0.97295487 0.0333423 
-0.27355748 -0.96105325 0.03928237 
-0.87177145 -0.48876134 0.033570852 
-0.99730945 0.071198985 0.017456347 
-0.83346593 0.5525449 0.0053690816 
-0.70824254 0.7058534 -0.012790115 
0.96603733 -0.25575742 -0.036879122 
0.9758242 -0.21772394 -0.019063639 
0.97161734 -0.23631087 -0.010811379 
0.9426431 -0.3337289 -0.007003459 
0.851857 -0.5237656 -0.003030265 
0.6148129 -0.7886654 0.0034740055 
0.14118288 -0.98991984 0.011232233 
-0.46939027 -0.8828475 0.015906757 
-0.9053556 -0.4244035 0.014595629 
-0.99921453 0.03819088 0.010573817 
-0.92185485 0.38747564 0.0067984154 
-0.8278784 0.5608745 -0.006103309 
# End: Data Text
# End: Segment
