# OOMMF: rectangular mesh v1.0
# Segment count: 1
# Begin: Segment
# Begin: Header
# Desc: Time (s) :  0
# Title: B_demag
# meshtype: rectangular
# meshunit: m
# xbase: 2.5e-09
# ybase: 2.5e-09
# zbase: 2.5e-09
# xstepsize: 5e-09
# ystepsize: 5e-09
# zstepsize: 5e-09
# xmin: 0
# ymin: 0
# zmin: 0
# xmax: 6.000000000000001e-08
# ymax: 6.000000000000001e-08
# zmax: 1e-08
# xnodes: 12
# ynodes: 12
# znodes: 2
# ValueRangeMinMag: 1e-08
# ValueRangeMaxMag: 1
# valueunit: T
# valuemultiplier: 1
# End: Header
# Begin: Data Text
0.4477167 -0.13532826 -0.1300181 
0.1866635 -0.014724039 -0.031074211 
0.10828891 0.0036104284 -0.013079079 
0.077059545 0.0036444198 -0.0076832687 
0.06671838 0.0028123558 -0.0044157207 
0.06647678 0.007954417 -0.000981163 
0.064515114 0.029464616 0.0033161035 
0.035754282 0.075457826 0.0062953914 
-0.018138068 0.113718465 -0.00091355946 
-0.021290652 0.13549444 -0.021213494 
0.08834738 0.18193659 -0.03497349 
0.4594718 0.30595767 0.04705818 
0.5431586 -0.026043402 -0.14161368 
0.2174989 -0.0039552227 -0.021126358 
0.11192134 0.0008285446 -0.004596444 
0.07593909 -0.0011987248 -0.0029486604 
0.0688297 -0.0022062366 -0.0026250202 
0.081031494 0.004480109 -0.0010499964 
0.11422832 0.03793434 0.00652119 
0.13594413 0.1741401 0.035279088 
-0.055136442 0.21011645 0.043747135 
-0.071684286 0.07892331 0.0059705237 
0.1499365 -0.008447679 -0.015713066 
0.48468217 0.082312286 0.09318696 
0.54263633 0.04107062 -0.14075297 
0.21394712 0.014172641 -0.019987233 
0.10769416 0.0009984132 -0.0036112797 
0.0728492 -0.0049847113 -0.0022409698 
0.06963446 -0.007676415 -0.0023529176 
0.09372394 -0.005358993 -0.0011518648 
0.17416713 0.012401442 0.0112121655 
0.47944102 0.108984426 0.10681535 
-0.40246165 0.10037739 0.12945157 
-0.34965703 -0.0806385 -0.030841835 
0.41964513 0.048628196 -0.054130927 
0.46892866 0.095373765 0.09993529 
0.44612324 0.15850097 -0.12523156 
0.17492065 0.030885346 -0.02511289 
0.09462331 0.0023257118 -0.007255016 
0.066420026 -0.0077342615 -0.0023012478 
0.06639593 -0.014065829 0.00015685055 
0.09451532 -0.018766034 0.0033324864 
0.17829743 -0.029881805 0.017367177 
0.47464877 -0.11995602 0.11167975 
-0.40200344 -0.13657545 0.12734973 
-0.2224071 0.102778696 -0.020653386 
0.49228585 0.37662086 0.02135721 
0.31445196 0.21369487 0.15573916 
0.08083575 0.27242237 -0.06234542 
0.08316666 0.10265442 -0.028697507 
0.053666625 0.018154526 -0.013551367 
0.040563006 -0.034462377 -0.0068649324 
0.04658428 -0.07261294 -0.0029146 
0.073212266 -0.10565412 0.0021985266 
0.12187933 -0.15191853 0.014965135 
0.1503454 -0.27485937 0.04779747 
-0.020980448 -0.2282331 0.04863549 
0.08872134 -0.044608735 0.026373614 
0.23674376 -0.25303733 0.087526105 
0.0332833 -0.41587713 0.12969902 
-0.016117845 0.13950731 -0.017659815 
-0.006789796 0.07296592 -0.015284304 
-0.010357412 0.0027802475 -0.014226016 
-0.008599918 -0.05760972 -0.015162768 
0.0061327405 -0.10935351 -0.016501915 
0.03583063 -0.15317228 -0.016060717 
0.07440977 -0.18840718 -0.011313038 
0.09871504 -0.20481223 -0.001826066 
0.099173605 -0.16679718 0.0063161943 
0.118436955 -0.106887594 0.015052836 
0.11560969 -0.10192183 0.031565268 
0.03808153 -0.109789796 0.04122077 
-0.06371953 0.12861969 -0.00014310516 
-0.08103021 0.053229056 -0.010941874 
-0.08218384 -0.029522797 -0.022202153 
-0.07495335 -0.11052585 -0.033713803 
-0.052859843 -0.18828316 -0.044891655 
-0.009989532 -0.2543857 -0.0530769 
0.0530389 -0.2937543 -0.054382093 
0.12677622 -0.27958435 -0.044129968 
0.17430313 -0.1956732 -0.021627929 
0.1837076 -0.095173776 0.004407776 
0.14876765 0.0017409623 0.029970787 
0.048912928 0.04794756 0.041124843 
-0.18298692 0.2203647 0.028443437 
-0.18909332 0.028861076 -0.020468026 
-0.1826062 -0.09720923 -0.05578801 
-0.18065952 -0.22987095 -0.09280832 
-0.15581532 -0.3758405 -0.13272311 
-0.0890706 -0.5083356 -0.1670522 
0.022015655 -0.5948335 -0.18456231 
0.2174741 -0.59927905 -0.1672286 
0.35112602 -0.27660823 -0.07713277 
0.32921922 -0.12375481 -0.0036099432 
0.3276813 0.2302432 0.097032964 
0.038743556 0.38277435 0.13565636 
-0.5441536 0.2648362 0.09834315 
-0.28161037 0.16890249 -0.014265344 
-0.23993234 0.17461665 -0.050611116 
-0.24413405 0.20656112 -0.08696031 
-0.2247779 0.23633477 -0.13020799 
-0.14209321 0.2508068 -0.169022 
-0.00533716 0.24948585 -0.1886281 
0.123582855 0.1825968 -0.1920683 
0.48271778 -0.10120456 -0.1311588 
0.21301009 -0.23599997 -0.066241264 
0.5486194 -0.5111894 0.033540487 
0.27746463 -0.34859324 0.1436963 
-0.59418833 0.12600483 0.13292341 
-0.2906002 0.1343457 0.008345472 
-0.21962923 0.15439361 -0.018110147 
-0.2236676 0.18084466 -0.039616898 
-0.22669408 0.19096726 -0.07127765 
-0.16887201 0.16576216 -0.10614699 
-0.043765333 0.1167357 -0.12664902 
0.041689806 0.06660847 -0.13933718 
0.324323 -0.13377197 -0.15301953 
0.103858374 -0.01263338 -0.10948685 
0.5105199 -0.10913487 -0.06582421 
0.45268163 -0.1175333 0.07192965 
-0.55428696 0.05669824 0.14188433 
-0.25971338 0.114958405 0.022849767 
-0.18351565 0.16220716 0.0010141563 
-0.1890933 0.21587178 -0.014532243 
-0.22143824 0.26953682 -0.04370253 
-0.21180454 0.29341438 -0.086565316 
-0.113744095 0.27767515 -0.12263634 
-0.008986071 0.27515775 -0.13730842 
0.31642258 0.33880687 -0.124290965 
0.2714767 0.13678914 -0.05136734 
0.2589122 0.071638 -0.027623765 
0.4751778 -0.048431568 0.07271296 
-0.4193371 -0.035636663 0.14512768 
-0.18940645 0.11902925 0.05444242 
-0.11812259 0.1937606 0.041335713 
-0.09979789 0.29499263 0.042033847 
-0.12102251 0.45411634 0.0406971 
-0.14847744 0.6536794 0.028261231 
-0.107001826 0.78819656 0.009376848 
-0.004160762 0.71830046 -0.0033467105 
0.09351744 0.44895804 -0.0102695795 
0.06673908 0.12376547 -0.020185206 
0.11230582 -0.10432358 -0.03924853 
0.45045462 -0.28625643 0.027934626 
0.44771668 -0.13532828 0.13001812 
0.18666348 -0.014724027 0.0310742 
0.108288944 0.003610419 0.013079082 
0.07705954 0.003644416 0.0076832697 
0.06671837 0.0028123334 0.004415715 
0.066476814 0.007954434 0.000981159 
0.064515114 0.029464616 -0.0033160988 
0.035754293 0.07545783 -0.006295394 
-0.018138038 0.113718465 0.0009135632 
-0.021290675 0.13549444 0.021213498 
0.08834739 0.18193659 0.0349735 
0.45947173 0.30595765 -0.04705819 
0.5431586 -0.026043413 0.14161368 
0.21749893 -0.003955245 0.021126354 
0.111921355 0.00082851294 0.0045964555 
0.07593908 -0.0011987304 0.0029486613 
0.068829685 -0.0022062613 0.0026250258 
0.08103154 0.0044801338 0.0010499954 
0.11422828 0.03793431 -0.0065211877 
0.1359441 0.17414013 -0.035279095 
-0.05513642 0.21011645 -0.043747142 
-0.071684286 0.07892334 -0.005970532 
0.1499365 -0.00844763 0.015713062 
0.48468208 0.082312316 -0.09318696 
0.5426363 0.041070648 0.14075296 
0.21394718 0.014172627 0.019987226 
0.10769419 0.0009984076 0.0036112946 
0.07284914 -0.0049847085 0.00224098 
0.06963448 -0.007676417 0.0023529269 
0.09372395 -0.0053589772 0.0011518687 
0.17416713 0.012401432 -0.011212162 
0.47944102 0.108984426 -0.10681535 
-0.40246165 0.100377366 -0.12945157 
-0.34965703 -0.080638476 0.030841837 
0.41964513 0.048628155 0.054130934 
0.4689286 0.0953738 -0.09993531 
0.44612324 0.15850097 0.12523156 
0.17492068 0.030885354 0.025112884 
0.0946233 0.0023257397 0.007255025 
0.06642006 -0.0077342577 0.0023012506 
0.06639593 -0.014065841 -0.00015685055 
0.094515346 -0.01876605 -0.0033324757 
0.17829737 -0.02988181 -0.017367173 
0.47464883 -0.119956 -0.111679755 
-0.40200344 -0.13657548 -0.12734972 
-0.2224071 0.10277871 0.020653393 
0.49228585 0.3766208 -0.021357216 
0.314452 0.21369487 -0.15573916 
0.08083576 0.2724224 0.06234541 
0.08316666 0.102654405 0.028697507 
0.053666636 0.01815454 0.013551376 
0.040563006 -0.034462392 0.00686494 
0.04658428 -0.07261293 0.0029146206 
0.073212266 -0.105654165 -0.0021985266 
0.12187931 -0.15191856 -0.014965132 
0.15034541 -0.27485937 -0.04779747 
-0.020980448 -0.2282331 -0.048635483 
0.08872132 -0.044608742 -0.026373604 
0.23674375 -0.25303733 -0.087526105 
0.03328331 -0.41587707 -0.129699 
-0.016117811 0.13950732 0.01765982 
-0.0067898594 0.07296592 0.015284308 
-0.010357402 0.0027802587 0.0142260175 
-0.008599913 -0.057609737 0.015162777 
0.0061327424 -0.10935352 0.016501926 
0.035830602 -0.1531723 0.016060716 
0.07440977 -0.18840718 0.011313032 
0.098715015 -0.20481223 0.0018260756 
0.09917361 -0.16679719 -0.006316187 
0.11843693 -0.106887594 -0.015052833 
0.11560973 -0.101921834 -0.03156528 
0.038081538 -0.109789796 -0.041220773 
-0.06371951 0.12861969 0.00014310889 
-0.081030235 0.053229053 0.010941878 
-0.08218385 -0.029522795 0.022202156 
-0.07495335 -0.11052585 0.033713803 
-0.052859806 -0.18828316 0.044891655 
-0.009989546 -0.2543857 0.0530769 
0.0530389 -0.2937543 0.054382082 
0.12677619 -0.27958435 0.044129975 
0.17430314 -0.1956732 0.021627929 
0.1837076 -0.09517378 -0.004407766 
0.14876767 0.0017409623 -0.029970791 
0.048912928 0.04794756 -0.04112484 
-0.18298689 0.22036472 -0.028443437 
-0.1890933 0.02886109 0.020468034 
-0.18260619 -0.09720923 0.055788007 
-0.18065956 -0.22987095 0.09280834 
-0.15581527 -0.37584049 0.1327231 
-0.08907059 -0.50833565 0.16705221 
0.0220157 -0.5948335 0.18456233 
0.21747404 -0.59927905 0.1672286 
0.35112602 -0.27660823 0.077132784 
0.32921922 -0.1237548 0.0036099348 
0.32768124 0.2302432 -0.09703295 
0.038743574 0.38277435 -0.13565636 
-0.5441536 0.26483622 -0.09834315 
-0.2816104 0.16890249 0.014265344 
-0.23993231 0.17461663 0.050611116 
-0.24413402 0.20656118 0.086960316 
-0.2247779 0.23633477 0.13020799 
-0.14209318 0.25080678 0.16902198 
-0.0053371564 0.24948582 0.1886281 
0.12358284 0.18259676 0.19206831 
0.48271775 -0.10120455 0.1311588 
0.21301009 -0.23599999 0.066241264 
0.5486194 -0.51118946 -0.033540487 
0.2774646 -0.3485932 -0.1436963 
-0.5941884 0.12600484 -0.1329234 
-0.29060024 0.1343457 -0.008345488 
-0.21962917 0.15439361 0.018110126 
-0.22366758 0.18084465 0.039616916 
-0.22669408 0.19096732 0.07127765 
-0.168872 0.16576219 0.10614698 
-0.043765325 0.1167357 0.12664902 
0.04168979 0.06660843 0.13933718 
0.32432303 -0.13377197 0.15301952 
0.1038584 -0.012633398 0.10948685 
0.51051986 -0.10913487 0.065824196 
0.45268172 -0.117533356 -0.07192963 
-0.55428696 0.05669822 -0.14188431 
-0.25971344 0.11495841 -0.022849767 
-0.18351567 0.16220716 -0.001014173 
-0.18909326 0.21587178 0.014532231 
-0.22143826 0.26953685 0.043702543 
-0.21180457 0.2934144 0.08656531 
-0.11374407 0.27767515 0.12263633 
-0.008986063 0.27515784 0.13730842 
0.31642252 0.3388069 0.12429096 
0.27147675 0.13678917 0.051367342 
0.25891215 0.07163799 0.027623756 
0.47517788 -0.04843154 -0.07271296 
-0.4193371 -0.035636693 -0.14512768 
-0.18940642 0.11902927 -0.054442428 
-0.118122615 0.19376062 -0.041335724 
-0.09979789 0.2949927 -0.042033866 
-0.121022485 0.4541163 -0.040697098 
-0.14847744 0.65367943 -0.02826124 
-0.10700177 0.7881967 -0.009376837 
-0.0041608326 0.7183004 0.0033467133 
0.09351745 0.44895804 0.010269572 
0.06673913 0.12376547 0.020185212 
0.1123057 -0.104323514 0.03924853 
0.45045468 -0.28625643 -0.027934633 
# End: Data Text
# End: Segment
