# t (s)	mx ()	my ()	mz ()	B_extx (T)	B_exty (T)	B_extz (T)
0	-6.386212e-12	-1.0217939e-10	-1.2772424e-11	0	0	0
0	4.2574746e-12	1.6830223e-06	0	0	0.005	0
0	1.4901162e-11	3.367126e-06	8.514949e-12	0	0.01	0
0	-4.3639117e-11	5.0549847e-06	-4.2574746e-12	0	0.014999993	0
0	-3.086669e-11	6.7481483e-06	4.2574746e-12	0	0.02	0
0	-1.3836793e-11	8.44815e-06	-1.7029898e-11	0	0.024999995	0
0	6.386212e-12	1.0156529e-05	1.06436865e-11	0	0.029999986	0
0	-1.0643686e-12	1.1876294e-05	-8.514949e-12	0	0.03500001	0
0	5.3218432e-12	1.3607893e-05	1.9158636e-11	0	0.04	0
0	-4.2574746e-11	1.535402e-05	1.7029898e-11	0	0.045000006	0
0	3.193106e-12	1.7116614e-05	0	0	0.04999999	0
0	-2.1287373e-12	1.88975e-05	4.2574746e-12	0	0.054999992	0
0	-1.9158636e-11	2.069973e-05	0	0	0.059999973	0
0	-1.06436865e-11	2.2524646e-05	2.3416111e-11	0	0.06500003	0
0	-4.8960957e-11	2.4374978e-05	-6.386212e-12	0	0.07000002	0
0	2.1287373e-12	2.6253769e-05	-1.7029898e-11	0	0.07500002	0
0	3.5124164e-11	2.8163246e-05	-1.9158636e-11	0	0.08	0
0	-2.1287373e-12	3.0106501e-05	1.06436865e-11	0	0.085000016	0
0	-2.1287373e-12	3.208695e-05	2.1287373e-12	0	0.09000001	0
0	-2.4480478e-11	3.4107532e-05	0	0	0.09500002	0
0	-2.2351742e-11	3.617239e-05	4.2574746e-12	0	0.09999998	0
0	-1.2772424e-11	3.8285656e-05	2.1287373e-12	0	0.10500001	0
0	-1.4901162e-11	4.0451458e-05	-2.1287373e-12	0	0.109999985	0
0	-3.8317273e-11	4.2674455e-05	1.06436865e-11	0	0.114999995	0
0	9.579318e-12	4.496021e-05	-4.2574746e-12	0	0.119999945	0
0	1.3836793e-11	4.731574e-05	-1.2772424e-11	0	0.125	0
0	2.1287373e-12	4.9746308e-05	-1.2772424e-11	0	0.13000005	0
0	-6.386212e-12	5.22605e-05	-1.4901162e-11	0	0.135	0
0	0	5.4866585e-05	2.3416111e-11	0	0.14000005	0
0	2.1287373e-12	5.757456e-05	-6.386212e-12	0	0.145	0
0	2.1287373e-12	6.039638e-05	-1.7029898e-11	0	0.15000004	0
0	-6.386212e-12	6.3345586e-05	-8.514949e-12	0	0.155	0
0	1.17080555e-11	6.643787e-05	-6.386212e-12	0	0.16	0
0	3.193106e-12	6.969265e-05	1.06436865e-11	0	0.16499998	0
0	-2.6609217e-11	7.31343e-05	4.2574746e-12	0	0.17000003	0
0	0	7.679333e-05	2.1287373e-12	0	0.17500001	0
0	-4.2574746e-11	8.0707854e-05	-1.3836793e-11	0	0.18000002	0
0	-4.2574746e-11	8.4931205e-05	0	0	0.18499996	0
0	5.3218433e-11	8.9537825e-05	-6.386212e-12	0	0.19000004	0
0	3.193106e-11	9.463947e-05	0	0	0.195	0
0	-6.811959e-11	0.00010042707	-2.1287373e-12	0	0.19999996	0
0	-4.6832222e-11	0.00010727675	8.514949e-12	0	0.20499995	0
0	7.876328e-11	0.0001162273	-2.1287373e-12	0	0.21000002	0
0	3.0440944e-10	0.17134327	-5.1089695e-11	0	0.21500002	0
0	7.078051e-11	0.17134394	-6.386212e-11	0	0.21999997	0
0	2.0223004e-11	0.17134465	2.5544847e-11	0	0.22499995	0
0	-4.8960957e-11	0.17134534	-2.5544847e-11	0	0.22999999	0
0	-1.43689765e-11	0.17134602	1.7029898e-11	0	0.23500003	0
0	0	0.1713467	-8.514949e-12	0	0.23999989	0
0	5.907246e-11	0.17134733	1.2772424e-11	0	0.24499992	0
0	-7.610236e-11	0.17134799	-8.514949e-12	0	0.25	0
0	-6.12012e-11	0.17134863	8.514949e-12	0	0.25500008	0
0	-7.876328e-11	0.17134926	0	0	0.2600001	0
0	-7.1844884e-11	0.17134987	-8.514949e-12	0	0.26499993	0
0	2.075519e-11	0.17135048	2.5544847e-11	0	0.27	0
0	-9.313226e-11	0.17135108	8.514949e-12	0	0.27500007	0
0	-4.2574746e-11	0.17135167	-1.2772424e-11	0	0.2800001	0
0	-4.3639117e-11	0.17135227	4.2574746e-11	0	0.28499997	0
0	1.2772424e-11	0.17135285	7.6634546e-11	0	0.29	0
0	-9.100352e-11	0.17135341	3.4059797e-11	0	0.29500005	0
0	-2.3416111e-11	0.17135397	2.5544847e-11	0	0.30000007	0
0	1.7562082e-11	0.17135449	-7.6634546e-11	0	0.30499998	0
0	-1.43689765e-11	0.17135505	1.7029898e-11	0	0.31	0
0	-7.9295466e-11	0.1713556	-3.4059797e-11	0	0.315	0
0	-1.17080555e-11	0.17135613	2.5544847e-11	0	0.32	0
0	-2.9802324e-11	0.17135665	2.5544847e-11	0	0.32499993	0
0	1.0643686e-12	0.17135718	1.7029898e-11	0	0.32999995	0
0	3.7252902e-11	0.17135768	3.4059797e-11	0	0.335	0
0	2.0223004e-11	0.17135817	-4.2574746e-11	0	0.34000006	0
0	-9.579318e-12	0.17135867	-5.534717e-11	0	0.34499994	0
0	-2.5544847e-11	0.17135918	5.534717e-11	0	0.35000002	0
0	-2.4480478e-11	0.17135869	-3.4059797e-11	0	0.34499994	0
0	2.1819558e-11	0.17135817	8.514949e-12	0	0.34000006	0
0	1.7562082e-11	0.17135768	2.5544847e-11	0	0.335	0
0	-1.3304608e-11	0.17135718	8.514949e-12	0	0.32999995	0
0	-6.9183964e-11	0.17135665	2.5544847e-11	0	0.3249999	0
0	-2.8737953e-11	0.17135613	8.514949e-12	0	0.32	0
0	-7.344144e-11	0.1713556	1.2772424e-11	0	0.315	0
0	1.8094267e-11	0.17135507	1.7029898e-11	0	0.31	0
0	-7.450581e-12	0.17135453	-2.9802324e-11	0	0.30499998	0
0	-2.2351742e-11	0.17135397	0	0	0.30000007	0
0	-7.1844884e-11	0.17135341	0	0	0.29500005	0
0	1.7029898e-11	0.17135285	6.811959e-11	0	0.29	0
0	-6.865178e-11	0.17135228	3.8317273e-11	0	0.28499997	0
0	-3.086669e-11	0.17135167	1.7029898e-11	0	0.2800001	0
0	-5.907246e-11	0.17135108	0	0	0.27500007	0
0	3.193106e-12	0.1713505	2.5544847e-11	0	0.27	0
0	-2.820577e-11	0.17134987	1.2772424e-11	0	0.26499993	0
0	-6.6523044e-11	0.17134926	1.7029898e-11	0	0.2600001	0
0	-2.6609216e-12	0.17134863	-1.2772424e-11	0	0.25500008	0
0	-7.610236e-11	0.17134798	0	0	0.25	0
0	6.492649e-11	0.17134733	4.6832222e-11	0	0.24499992	0
0	2.075519e-11	0.1713467	-4.2574746e-11	0	0.23999989	0
0	-4.2574746e-11	0.17134602	2.5544847e-11	0	0.23500003	0
0	-9.15357e-11	0.17134534	-4.6832222e-11	0	0.22999999	0
0	3.086669e-11	0.17134465	-1.7029898e-11	0	0.22499995	0
0	6.9183964e-11	0.17134394	-5.1089695e-11	0	0.21999997	0
0	-9.579318e-12	0.17134327	-4.6832222e-11	0	0.21500002	0
0	-7.876328e-11	0.17134252	-8.514949e-12	0	0.21000002	0
0	1.0643686e-12	0.17134179	-3.4059797e-11	0	0.20499995	0
0	-9.3664444e-11	0.17134106	-1.7029898e-11	0	0.19999996	0
0	1.0643686e-12	0.17134032	-2.1287373e-11	0	0.195	0
0	5.960465e-11	0.17133954	-1.7029898e-11	0	0.19000004	0
0	-4.151038e-11	0.17133878	8.514949e-12	0	0.18499996	0
0	-8.993915e-11	0.17133798	-5.1089695e-11	0	0.18000002	0
0	4.2574746e-12	0.17133716	1.7029898e-11	0	0.17500001	0
0	2.3416111e-11	0.17133635	0	0	0.17000003	0
0	4.204256e-11	0.17133552	2.5544847e-11	0	0.16499998	0
0	3.9913826e-11	0.17133468	2.5544847e-11	0	0.16	0
0	2.1287373e-11	0.17133383	1.1069434e-10	0	0.155	0
0	1.06436865e-11	0.17133296	-1.7029898e-11	0	0.15000004	0
0	-1.2080584e-10	0.17133206	5.1089695e-11	0	0.145	0
0	-2.0223004e-11	0.17133115	-3.4059797e-11	0	0.14000005	0
0	2.1287373e-12	0.17133021	-1.7029898e-11	0	0.135	0
0	1.2240239e-11	0.17132929	-1.7029898e-11	0	0.13000005	0
0	-7.769891e-11	0.17132834	-5.1089695e-11	0	0.125	0
0	-3.193106e-11	0.17132738	0	0	0.119999945	0
0	5.534717e-11	0.17132638	-1.7029898e-11	0	0.114999995	0
0	1.0430813e-10	0.17132536	0	0	0.109999985	0
0	-8.0892015e-11	0.17132433	-8.514949e-12	0	0.10500001	0
0	7.982765e-11	0.17132328	4.2574746e-12	0	0.09999998	0
0	1.17080555e-11	0.17132223	0	0	0.09500002	0
0	-3.6188535e-11	0.17132111	8.514949e-12	0	0.09000001	0
0	-2.0223004e-11	0.17131999	-8.514949e-12	0	0.085000016	0
0	-3.299543e-11	0.17131889	-1.2772424e-11	0	0.08	0
0	3.938164e-11	0.17131771	8.514949e-12	0	0.07500002	0
0	-1.7029898e-11	0.17131655	1.7029898e-11	0	0.07000002	0
0	-4.151038e-11	0.17131534	8.514949e-12	0	0.06500003	0
0	5.1089695e-11	0.1713141	-5.960465e-11	0	0.059999973	0
0	2.1287373e-11	0.17131285	4.2574746e-11	0	0.054999992	0
0	-6.599086e-11	0.17131156	-2.5544847e-11	0	0.04999999	0
0	-3.086669e-11	0.17131023	-1.7029898e-11	0	0.045000006	0
0	-4.3639117e-11	0.1713089	-2.5544847e-11	0	0.04	0
0	3.8317273e-11	0.17130752	2.5544847e-11	0	0.03500001	0
0	-5.641154e-11	0.17130612	-8.514949e-12	0	0.029999986	0
0	-6.066901e-11	0.17130469	-1.7029898e-11	0	0.024999995	0
0	-4.6832222e-11	0.17130324	-3.4059797e-11	0	0.02	0
0	-1.2453114e-10	0.17130172	1.2772424e-11	0	0.014999993	0
0	-9.579318e-12	0.17130017	-8.514949e-12	0	0.01	0
0	-1.4368977e-10	0.17129858	4.2574746e-11	0	0.005	0
0	2.0223004e-11	0.17129697	3.4059797e-11	0	-2.654127e-16	0
0	-7.13127e-11	0.17129533	1.7029898e-11	0	-0.005	0
0	5.3218433e-11	0.17129362	-2.5544847e-11	0	-0.01	0
0	7.450581e-12	0.17129187	1.7029898e-11	0	-0.014999993	0
0	2.2351742e-11	0.17129008	-4.2574746e-11	0	-0.02	0
0	-2.1287373e-11	0.17128824	6.386212e-11	0	-0.024999995	0
0	-1.0111502e-10	0.17128636	-4.2574746e-11	0	-0.029999986	0
0	-4.789659e-11	0.1712844	4.2574746e-12	0	-0.03500001	0
0	-2.7673586e-11	0.1712824	-1.7029898e-11	0	-0.04	0
0	3.086669e-11	0.17128035	-3.4059797e-11	0	-0.045000006	0
0	3.6188535e-11	0.17127824	-2.1287373e-11	0	-0.04999999	0
0	-4.3639117e-11	0.17127605	-8.514949e-12	0	-0.054999992	0
0	3.193106e-12	0.17127383	1.7029898e-11	0	-0.059999973	0
0	9.047134e-11	0.17127149	-2.5544847e-11	0	-0.06500003	0
0	-1.05372495e-10	0.17126912	5.534717e-11	0	-0.07000002	0
0	-4.2574746e-11	0.17126663	3.8317273e-11	0	-0.07500002	0
0	-7.6634546e-11	0.17126407	-5.1089695e-11	0	-0.08	0
0	-7.876328e-11	0.17126144	1.7029898e-11	0	-0.085000016	0
0	-2.6609217e-11	0.1712587	3.4059797e-11	0	-0.09000001	0
0	-1.1388745e-10	0.17125587	6.811959e-11	0	-0.09500002	0
0	-2.7673586e-11	0.17125294	-2.5544847e-11	0	-0.09999998	0
0	-4.0446008e-11	0.1712499	1.7029898e-11	0	-0.10500002	0
0	-1.11758706e-10	0.17124672	0	0	-0.109999985	0
0	2.5544847e-11	0.17124341	-1.2772424e-11	0	-0.114999995	0
0	-3.6188535e-11	0.17123997	-2.5544847e-11	0	-0.119999945	0
0	-9.7921914e-11	0.1712364	4.6832222e-11	0	-0.125	0
0	-7.876328e-11	0.17123263	-3.4059797e-11	0	-0.13000005	0
0	8.0892015e-11	0.17122872	0	0	-0.135	0
0	-6.811959e-11	0.17122462	-1.7029898e-11	0	-0.14000005	0
0	1.6710588e-10	0.1712203	-3.4059797e-11	0	-0.14499998	0
0	-4.151038e-11	0.17121576	8.514949e-12	0	-0.15000004	0
0	-4.8960957e-11	0.17121094	-5.960465e-11	0	-0.155	0
0	1.2772424e-11	0.17120586	-8.514949e-12	0	-0.16	0
0	-9.15357e-11	0.17120045	2.9802324e-11	0	-0.16499998	0
0	3.299543e-11	0.1711947	-5.1089695e-11	0	-0.17000003	0
0	-4.2574746e-12	0.17118853	0	0	-0.17500001	0
0	1.05372495e-10	0.17118189	8.514949e-12	0	-0.18000002	0
0	-7.6634546e-11	0.17117466	8.514949e-12	0	-0.18499996	0
0	-1.7029898e-11	0.17116675	8.514949e-12	0	-0.19000004	0
0	2.7673586e-11	0.17115797	-3.4059797e-11	0	-0.195	0
0	-1.2985298e-10	0.17114802	-1.7029898e-11	0	-0.19999996	0
0	1.2772424e-11	0.17113636	1.1069434e-10	0	-0.20499995	0
0	-8.514949e-11	0.17112187	8.514949e-12	0	-0.21000002	0
0	-2.1287373e-12	0.17109974	5.1089695e-11	0	-0.21500002	0
0	-1.7796244e-09	-0.17134395	6.386212e-11	0	-0.21999997	0
0	-1.8626451e-11	-0.17134465	3.4059797e-11	0	-0.22499995	0
0	7.8231095e-11	-0.17134534	2.5544847e-11	0	-0.22999999	0
0	1.1175871e-11	-0.17134602	8.514949e-12	0	-0.23500003	0
0	-2.0223004e-11	-0.17134668	4.2574746e-11	0	-0.23999989	0
0	-7.8231095e-11	-0.17134733	-4.2574746e-12	0	-0.24499992	0
0	5.907246e-11	-0.17134799	-8.514949e-12	0	-0.25	0
0	8.0892015e-11	-0.17134862	-3.4059797e-11	0	-0.25500008	0
0	8.355294e-11	-0.17134924	4.2574746e-12	0	-0.2600001	0
0	3.193106e-11	-0.17134987	-2.9802324e-11	0	-0.26499993	0
0	-3.299543e-11	-0.17135048	-1.7029898e-11	0	-0.27	0
0	1.06436866e-10	-0.17135108	0	0	-0.27500007	0
0	-3.0334506e-11	-0.17135169	2.5544847e-11	0	-0.2800001	0
0	3.565635e-11	-0.17135228	-4.2574746e-11	0	-0.28499997	0
0	6.0136826e-11	-0.17135283	-5.1089695e-11	0	-0.29	0
0	9.472881e-11	-0.17135341	-1.2772424e-11	0	-0.29500005	0
0	3.352761e-11	-0.17135397	-8.514949e-12	0	-0.3000001	0
0	-1.5433346e-11	-0.17135453	6.386212e-11	0	-0.30499998	0
0	1.9158636e-11	-0.17135507	-1.2772424e-11	0	-0.31	0
0	6.599086e-11	-0.1713556	4.2574746e-11	0	-0.315	0
0	4.8428775e-11	-0.17135613	-3.8317273e-11	0	-0.32	0
0	7.982765e-12	-0.17135665	-1.7029898e-11	0	-0.32499993	0
0	7.450581e-12	-0.17135718	0	0	-0.32999995	0
0	-1.596553e-11	-0.17135768	-2.5544847e-11	0	-0.335	0
0	-1.1175871e-11	-0.17135817	8.514949e-12	0	-0.34000006	0
0	3.8317273e-11	-0.17135867	1.7029898e-11	0	-0.34499994	0
0	2.5544847e-11	-0.17135918	0	0	-0.35000002	0
0	3.7785088e-11	-0.17135867	1.7029898e-11	0	-0.34499994	0
0	3.7252905e-12	-0.17135817	-4.2574746e-12	0	-0.34000006	0
0	-1.969082e-11	-0.17135768	-1.7029898e-11	0	-0.335	0
0	-1.0111502e-11	-0.17135718	-8.514949e-12	0	-0.32999995	0
0	5.0025328e-11	-0.17135665	-1.7029898e-11	0	-0.32499993	0
0	3.2463244e-11	-0.17135613	0	0	-0.32	0
0	9.047134e-11	-0.1713556	-1.7029898e-11	0	-0.315	0
0	-1.06436865e-11	-0.17135507	-4.2574746e-12	0	-0.31	0
0	7.982765e-12	-0.1713545	5.1089695e-11	0	-0.30499998	0
0	2.1287373e-12	-0.17135397	-8.514949e-12	0	-0.30000007	0
0	7.13127e-11	-0.17135341	-1.7029898e-11	0	-0.29500005	0
0	3.7785088e-11	-0.17135285	-5.1089695e-11	0	-0.29	0
0	3.565635e-11	-0.17135228	0	0	-0.28499997	0
0	3.193106e-12	-0.17135167	3.8317273e-11	0	-0.2800001	0
0	1.0590468e-10	-0.17135108	-1.2772424e-11	0	-0.27500007	0
0	-2.0223004e-11	-0.17135048	-2.5544847e-11	0	-0.27	0
0	5.4814986e-11	-0.17134987	-2.1287373e-11	0	-0.26499993	0
0	5.641154e-11	-0.17134926	-8.514949e-12	0	-0.2600001	0
0	2.3416111e-11	-0.17134862	4.2574746e-12	0	-0.25500008	0
0	5.162188e-11	-0.17134799	4.2574746e-12	0	-0.25	0
0	-8.14242e-11	-0.17134733	1.2772424e-11	0	-0.24499992	0
0	-4.4703484e-11	-0.17134668	4.2574746e-11	0	-0.23999989	0
0	3.4059797e-11	-0.17134602	0	0	-0.23500003	0
0	8.248857e-11	-0.17134534	-1.2772424e-11	0	-0.22999999	0
0	2.4480478e-11	-0.17134465	1.7029898e-11	0	-0.22499995	0
0	-2.0223004e-11	-0.17134394	2.5544847e-11	0	-0.21999997	0
0	1.43689765e-11	-0.17134327	5.1089695e-11	0	-0.21500002	0
0	5.7475906e-11	-0.17134252	-8.514949e-12	0	-0.21000002	0
0	2.5544847e-11	-0.17134179	-3.4059797e-11	0	-0.20499995	0
0	8.248857e-11	-0.17134108	1.7029898e-11	0	-0.19999996	0
0	-2.2351742e-11	-0.17134032	4.2574746e-12	0	-0.195	0
0	-9.15357e-11	-0.17133954	0	0	-0.19000004	0
0	-2.927014e-11	-0.17133878	-1.7029898e-11	0	-0.18499996	0
0	7.5570175e-11	-0.17133798	2.5544847e-11	0	-0.18000002	0
0	-2.2883926e-11	-0.17133716	1.7029898e-11	0	-0.17500001	0
0	-1.17080555e-11	-0.17133635	-3.4059797e-11	0	-0.17000003	0
0	-1.2772424e-11	-0.17133553	-1.7029898e-11	0	-0.16499998	0
0	-5.321843e-13	-0.17133468	-4.2574746e-11	0	-0.16	0
0	-5.3218432e-12	-0.1713338	-4.2574746e-11	0	-0.155	0
0	7.078051e-11	-0.17133296	1.7029898e-11	0	-0.15000004	0
0	1.0324376e-10	-0.17133206	-3.4059797e-11	0	-0.145	0
0	-6.173338e-11	-0.17133114	2.9802324e-11	0	-0.14000005	0
0	1.3836793e-11	-0.17133021	-4.2574746e-11	0	-0.135	0
0	-4.3639117e-11	-0.17132929	2.5544847e-11	0	-0.13000005	0
0	1.1282308e-10	-0.17132834	8.514949e-12	0	-0.125	0
0	8.1956386e-11	-0.17132738	2.5544847e-11	0	-0.119999945	0
0	1.3836793e-11	-0.17132638	-2.1287373e-11	0	-0.114999995	0
0	-4.6832222e-11	-0.17132536	0	0	-0.109999985	0
0	5.2154066e-11	-0.17132433	8.514949e-12	0	-0.10500001	0
0	-8.514949e-11	-0.17132328	-3.8317273e-11	0	-0.09999998	0
0	-5.3218432e-12	-0.17132221	4.2574746e-12	0	-0.09500002	0
0	3.6188535e-11	-0.17132111	4.2574746e-11	0	-0.09000001	0
0	3.6188535e-11	-0.17131999	1.2772424e-11	0	-0.085000016	0
0	5.960465e-11	-0.17131889	7.6634546e-11	0	-0.08	0
0	-1.085656e-10	-0.17131773	-1.7029898e-11	0	-0.07500002	0
0	3.4059797e-11	-0.17131655	-8.514949e-12	0	-0.07000002	0
0	4.789659e-11	-0.17131533	-4.2574746e-11	0	-0.06500003	0
0	-5.534717e-11	-0.17131409	7.6634546e-11	0	-0.059999973	0
0	0	-0.17131285	-3.4059797e-11	0	-0.054999992	0
0	4.3639117e-11	-0.17131156	6.386212e-11	0	-0.04999999	0
0	3.299543e-11	-0.17131023	3.4059797e-11	0	-0.045000006	0
0	8.727823e-11	-0.1713089	1.7029898e-11	0	-0.04	0
0	5.0025328e-11	-0.17130752	-2.5544847e-11	0	-0.03500001	0
0	1.1495181e-10	-0.17130612	4.2574746e-12	0	-0.029999986	0
0	2.3416111e-11	-0.17130469	0	0	-0.024999995	0
0	8.1956386e-11	-0.17130321	4.2574746e-11	0	-0.02	0
0	5.1089695e-11	-0.17130172	1.2772424e-11	0	-0.014999993	0
0	-2.1287373e-11	-0.17130017	2.1287373e-11	0	-0.01	0
0	1.0111502e-10	-0.17129858	-1.7029898e-11	0	-0.005	0
0	-6.066901e-11	-0.17129698	8.514949e-12	0	2.654127e-16	0
0	1.8094267e-11	-0.17129533	8.514949e-12	0	0.005	0
0	-2.2351742e-11	-0.17129362	3.8317273e-11	0	0.01	0
0	1.17080555e-11	-0.17129187	-8.514949e-12	0	0.014999993	0
0	-6.279775e-11	-0.17129007	-8.514949e-12	0	0.02	0
0	5.854028e-11	-0.17128824	1.7029898e-11	0	0.024999995	0
0	1.4156103e-10	-0.17128636	4.2574746e-11	0	0.029999986	0
0	4.2574746e-11	-0.17128442	-5.960465e-11	0	0.03500001	0
0	-8.514949e-12	-0.1712824	2.5544847e-11	0	0.04	0
0	-2.9802324e-11	-0.17128035	2.1287373e-11	0	0.045000006	0
0	-7.876328e-11	-0.17127824	8.514949e-12	0	0.04999999	0
0	-5.3218432e-12	-0.17127605	-3.4059797e-11	0	0.054999992	0
0	-4.2574746e-12	-0.17127383	-1.2772424e-11	0	0.059999973	0
0	-8.1956386e-11	-0.17127149	3.8317273e-11	0	0.06500003	0
0	1.0217939e-10	-0.17126907	-7.6634546e-11	0	0.07000002	0
0	7.6634546e-11	-0.17126663	-2.5544847e-11	0	0.07500002	0
0	5.641154e-11	-0.17126407	4.2574746e-11	0	0.08	0
0	7.769891e-11	-0.17126144	2.1287373e-11	0	0.085000016	0
0	-1.2772424e-11	-0.1712587	0	0	0.09	0
0	2.4480478e-11	-0.17125586	0	0	0.09500002	0
0	4.576785e-11	-0.17125294	1.7029898e-11	0	0.09999998	0
0	-3.193106e-11	-0.1712499	0	0	0.10500001	0
0	3.299543e-11	-0.17124672	3.4059797e-11	0	0.109999985	0
0	5.7475906e-11	-0.17124341	-4.2574746e-11	0	0.114999995	0
0	1.1814492e-10	-0.17123999	1.7029898e-11	0	0.119999945	0
0	3.7252902e-11	-0.1712364	-3.4059797e-11	0	0.125	0
0	6.386212e-12	-0.17123263	7.6634546e-11	0	0.13000005	0
0	-8.621386e-11	-0.17122872	-3.4059797e-11	0	0.135	0
0	7.5570175e-11	-0.17122462	-3.4059797e-11	0	0.14000005	0
0	-7.4505804e-11	-0.1712203	-4.2574746e-12	0	0.14499998	0
0	3.299543e-11	-0.17121573	0	0	0.15000004	0
0	-2.1287373e-11	-0.17121094	-2.5544847e-11	0	0.155	0
0	7.024833e-11	-0.17120586	-5.534717e-11	0	0.16	0
0	5.7475906e-11	-0.17120045	-1.7029898e-11	0	0.16499998	0
0	-2.8737953e-11	-0.1711947	9.3664444e-11	0	0.17000003	0
0	3.193106e-12	-0.17118853	0	0	0.17500001	0
0	-6.705522e-11	-0.17118187	-2.5544847e-11	0	0.18000002	0
0	1.9158636e-11	-0.17117466	-1.7029898e-11	0	0.18499996	0
0	-1.0324376e-10	-0.17116675	2.5544847e-11	0	0.19000004	0
0	-8.514949e-12	-0.17115797	2.9802324e-11	0	0.195	0
0	1.6817024e-10	-0.17114802	8.514949e-12	0	0.19999996	0
0	5.3218433e-11	-0.17113636	-7.237707e-11	0	0.20499995	0
0	5.534717e-11	-0.17112187	-1.7029898e-11	0	0.21000002	0
0	-3.8317273e-11	-0.17109974	-1.2772424e-11	0	0.21500002	0
0	3.193106e-11	0.17134395	-4.2574746e-11	0	0.21999997	0
0	-3.2463244e-11	0.17134465	-4.2574746e-12	0	0.22499995	0
0	-9.3664444e-11	0.17134534	-4.2574746e-12	0	0.22999999	0
0	3.0334506e-11	0.17134602	0	0	0.23500003	0
0	1.0643686e-12	0.17134668	-8.514949e-12	0	0.23999989	0
0	9.579318e-11	0.17134733	4.2574746e-12	0	0.24499992	0
0	-4.310693e-11	0.17134799	-8.514949e-12	0	0.25	0
0	-5.1089695e-11	0.17134863	4.2574746e-11	0	0.25500008	0
0	-9.7389735e-11	0.17134926	-1.7029898e-11	0	0.2600001	0
0	-7.5570175e-11	0.17134987	-2.1287373e-11	0	0.26499993	0
0	3.352761e-11	0.1713505	0	0	0.27	0
0	-8.248857e-11	0.17135108	0	0	0.27500007	0
0	-2.2351742e-11	0.17135167	-1.7029898e-11	0	0.2800001	0
0	-1.3836793e-11	0.17135228	4.2574746e-11	0	0.28499997	0
0	-6.226557e-11	0.17135285	5.960465e-11	0	0.29	0
0	-1.06436866e-10	0.17135341	0	0	0.29500005	0
0	-1.17080555e-11	0.17135397	1.2772424e-11	0	0.30000007	0
0	3.086669e-11	0.1713545	-2.5544847e-11	0	0.30499998	0
0	8.514949e-12	0.17135507	3.4059797e-11	0	0.31	0
0	-1.00050655e-10	0.1713556	-3.8317273e-11	0	0.315	0
0	-3.5124164e-11	0.17135613	1.2772424e-11	0	0.32	0
0	-2.4480478e-11	0.17135665	3.4059797e-11	0	0.32499993	0
0	9.047134e-12	0.17135718	3.4059797e-11	0	0.32999995	0
0	1.8094267e-11	0.17135768	2.5544847e-11	0	0.335	0
0	2.7673586e-11	0.17135817	0	0	0.34000006	0
0	-3.0334506e-11	0.17135867	-4.2574746e-12	0	0.34499994	0
