# t (s)	mx ()	my ()	mz ()	B_extx (T)	B_exty (T)	B_extz (T)
0	-4.8033395e-09	0.9902628	8.424123e-11	0	0	0
0	0.060539987	0.97430855	-2.5431315e-10	0.001	0	0
0	0.064286314	0.9739325	3.5603842e-10	0.002	0	0
0	0.06802422	0.973546	2.5431315e-11	0.003	0	0
0	0.07175429	0.9731489	1.4940897e-10	0.004	0	0
0	0.075476944	0.97274107	-2.1855036e-10	0.005	0	0
0	0.079192445	0.9723225	-1.9470851e-10	0.006	0	0
0	0.082901105	0.9718929	-5.086263e-10	0.007	0	0
0	0.08660345	0.9714523	-1.748403e-10	0.008	0	0
0	0.09029939	0.97100073	4.529953e-11	0.009	0	0
0	0.093989305	0.9705379	1.04904176e-10	0.01	0	0
0	0.097673655	0.97006375	1.9868215e-11	0.011000001	0	0
0	0.10135225	0.9695783	2.0345052e-10	0.012	0	0
0	0.10502555	0.9690816	-3.6517778e-10	0.013	0	0
0	0.1086936	0.9685732	-2.3961066e-10	0.014	0	0
0	0.11235685	0.96805334	-5.4836274e-11	0.014999999	0	0
0	0.116015024	0.96752185	1.1126201e-10	0.016	0	0
0	0.1196697	0.96697855	-3.417333e-11	0.017000003	0	0
0	0.12331724	0.9664243	0	0.018	0	0
0	0.1269616	0.9658579	-2.0345052e-10	0.019	0	0
0	0.13060158	0.9652797	-5.086263e-10	0.02	0	0
0	0.13423717	0.9646898	-4.053116e-11	0.021	0	0
0	0.13786878	0.9640878	-1.0172526e-10	0.022000002	0	0
0	0.14149617	0.9634743	3.814697e-11	0.023	0	0
0	0.14511958	0.96284866	-1.5815099e-10	0.024	0	0
0	0.14873907	0.96221113	1.0172526e-10	0.025	0	0
0	0.15235461	0.9615617	2.5351843e-10	0.026	0	0
0	0.15596649	0.9609	2.4875005e-10	0.027	0	0
0	0.1595745	0.96022666	2.3523966e-10	0.028	0	0
0	0.16317886	0.959541	2.2411346e-10	0.029	0	0
0	0.1667798	0.95884335	1.001358e-10	0.029999997	0	0
0	0.17037709	0.95813346	0	0.030999998	0	0
0	0.17397088	0.95741135	-3.0517577e-10	0.032	0	0
0	0.17756107	0.9566773	1.0172526e-10	0.032999996	0	0
0	0.18114804	0.9559308	-4.0690104e-10	0.034000006	0	0
0	0.18473156	0.9551722	-3.0557315e-10	0.035	0	0
0	0.1883115	0.95440143	-8.583069e-11	0.036	0	0
0	0.19188832	0.95361835	-1.00334484e-10	0.037	0	0
0	0.19546196	0.9528229	3.4014383e-10	0.038	0	0
0	0.19903232	0.952015	-3.0120215e-10	0.039000005	0	0
0	0.20259939	0.9511949	-3.0517577e-10	0.04	0	0
0	0.20616332	0.9503625	-6.635984e-11	0.041000005	0	0
0	0.20972387	0.9495177	5.412102e-10	0.042	0	0
0	0.21328145	0.94866043	4.0690104e-10	0.043	0	0
0	0.2168359	0.94779086	3.0517577e-10	0.044000003	0	0
0	0.22038743	0.9469084	-3.496806e-11	0.045	0	0
0	0.22393557	0.94601387	-8.742015e-11	0.046	0	0
0	0.22748086	0.9451067	0	0.047	0	0
0	0.23102304	0.9441871	1.0172526e-10	0.048	0	0
0	0.23456334	0.9432545	2.336502e-10	0.049	0	0
0	0.23809828	0.9423101	-1.2477239e-10	0.05	0	0
0	0.24163318	0.94135207	2.5605162e-10	0.051	0	0
0	0.2451613	0.9403827	-1.02519986e-10	0.052	0	0
0	0.24868828	0.9394002	-1.0172526e-10	0.052999996	0	0
0	0.25221238	0.938405	-2.0345052e-10	0.054	0	0
0	0.25573355	0.937397	1.0172526e-10	0.055	0	0
0	0.25925195	0.9363763	3.0517577e-10	0.056	0	0
0	0.26276702	0.9353429	-3.7034353e-10	0.057	0	0
0	0.2662793	0.93429685	-1.9997358e-10	0.058	0	0
0	0.26978844	0.93323815	-1.0172526e-10	0.059000008	0	0
0	0.2732949	0.93216634	0	0.059999995	0	0
0	0.27679804	0.93108207	1.5586614e-10	0.061000008	0	0
0	0.28029847	0.929985	6.1035155e-10	0.061999995	0	0
0	0.28379554	0.9288748	2.0980835e-10	0.06300001	0	0
0	0.28729063	0.9277518	2.0345052e-10	0.064	0	0
0	0.29078224	0.92661583	2.0345052e-10	0.065	0	0
0	0.29427078	0.9254672	1.0172526e-10	0.06599999	0	0
0	0.29775652	0.92430544	2.2252401e-11	0.06700001	0	0
0	0.3012393	0.92313075	0	0.06800001	0	0
0	0.30471897	0.9219431	2.0662944e-10	0.069	0	0
0	0.3081955	0.9207427	-3.0517577e-10	0.07	0	0
0	0.31166956	0.91952884	3.4650166e-10	0.071	0	0
0	0.31514022	0.9183023	-2.336502e-10	0.072	0	0
0	0.31860816	0.9170624	-3.0517577e-10	0.073	0	0
0	0.322073	0.91580945	0	0.074	0	0
0	0.32553563	0.9145432	-1.7801921e-10	0.075	0	0
0	0.32899386	0.9132643	1.0172526e-10	0.076	0	0
0	0.3324509	0.91197145	-5.086263e-10	0.077	0	0
0	0.3359026	0.91066647	3.0517577e-10	0.07800001	0	0
0	0.33935246	0.9093476	2.4000804e-10	0.079	0	0
0	0.34279913	0.9080157	-3.9100648e-10	0.08	0	0
0	0.34624344	0.9066702	-5.086263e-10	0.081	0	0
0	0.34968355	0.9053119	-1.0172526e-10	0.08200001	0	0
0	0.35312217	0.9039395	2.2729238e-10	0.083	0	0
0	0.35655573	0.9025547	-2.0345052e-10	0.084	0	0
0	0.3599873	0.90115595	2.0345052e-10	0.08499999	0	0
0	0.36341575	0.899744	5.086263e-10	0.086	0	0
0	0.36684093	0.89831835	-4.7683715e-11	0.08699999	0	0
0	0.37026298	0.89687955	-1.0172526e-10	0.08800001	0	0
0	0.37368193	0.89542717	-4.863739e-10	0.088999994	0	0
0	0.37709782	0.89396125	2.0345052e-10	0.09	0	0
0	0.3805102	0.89248186	1.0172526e-10	0.09099999	0	0
0	0.3839198	0.89098865	-1.0172526e-10	0.092	0	0
0	0.38732606	0.88948196	-1.2874603e-10	0.092999995	0	0
0	0.39072913	0.8879617	-2.6702882e-10	0.094	0	0
0	0.39412922	0.8864277	0	0.09499999	0	0
0	0.3975254	0.8848801	2.0345052e-10	0.096	0	0
0	0.40091854	0.8833187	1.0172526e-10	0.097	0	0
0	0.40430832	0.88174385	0	0.098	0	0
0	0.40769506	0.8801549	2.0345052e-10	0.098999985	0	0
0	0.41107833	0.8785522	2.0345052e-10	0.1	0	0
0	0.41445836	0.8769356	1.2079875e-10	0.10100001	0	0
0	0.41783494	0.87530524	2.0345052e-10	0.102	0	0
0	0.42120808	0.8736609	-2.0345052e-10	0.102999985	0	0
0	0.42457786	0.87200266	3.8146972e-10	0.104	0	0
0	0.42794412	0.8703305	-1.0808309e-10	0.105	0	0
0	0.43130702	0.8686443	-1.0172526e-10	0.10599999	0	0
0	0.43466645	0.866944	9.536743e-11	0.10700001	0	0
0	0.4380226	0.86522955	-2.9563904e-10	0.108	0	0
0	0.44137484	0.8635012	-3.6239625e-10	0.109	0	0
0	0.44472328	0.86175895	-1.0172526e-10	0.11	0	0
0	0.4480687	0.8600021	-1.3351441e-10	0.111	0	0
0	0.45141062	0.858231	-3.0517577e-10	0.112	0	0
0	0.45474827	0.85644615	2.0345052e-10	0.113	0	0
0	0.45808265	0.85464674	1.8437704e-10	0.114	0	0
0	0.46141344	0.8528329	-8.583069e-11	0.115	0	0
0	0.46474025	0.8510049	2.9563904e-10	0.11599999	0	0
0	0.4680633	0.8491627	0	0.117	0	0
0	0.4713825	0.84730613	7.311503e-11	0.118000016	0	0
0	0.47469848	0.8454346	1.4623006e-10	0.119	0	0
0	0.47801027	0.84354895	-2.0345052e-10	0.11999999	0	0
0	0.48131797	0.8416489	1.14440915e-10	0.121	0	0
0	0.4846221	0.83973396	6.357829e-11	0.122000016	0	0
0	0.48792192	0.8378049	0	0.123	0	0
0	0.49121806	0.8358609	-2.9563904e-10	0.12399999	0	0
0	0.49451032	0.8339022	6.1035155e-10	0.125	0	0
0	0.4977985	0.83192885	1.5894572e-10	0.12600002	0	0
0	0.50108224	0.8299411	-6.1035155e-10	0.127	0	0
0	0.50436246	0.82793796	1.8437704e-10	0.128	0	0
0	0.5076382	0.8259204	1.5258789e-10	0.129	0	0
0	0.5109097	0.8238881	1.1126201e-10	0.13	0	0
0	0.5141772	0.8218407	3.0517577e-10	0.131	0	0
0	0.5174401	0.81977874	-2.0345052e-10	0.13199998	0	0
0	0.52069896	0.81770146	1.0172526e-10	0.133	0	0
0	0.52395374	0.8156091	-5.086263e-10	0.13400002	0	0
0	0.527204	0.8135018	3.7193298e-10	0.13500002	0	0
0	0.5304495	0.81137973	3.0517577e-10	0.13600002	0	0
0	0.5336908	0.8092423	-1.0172526e-10	0.13699998	0	0
0	0.5369274	0.80709	1.27156575e-11	0.138	0	0
0	0.5401599	0.804922	1.0172526e-10	0.139	0	0
0	0.54338807	0.80273896	-4.196167e-10	0.14	0	0
0	0.546611	0.80054075	-1.2397766e-10	0.141	0	0
0	0.5498291	0.79832727	4.0690104e-10	0.142	0	0
0	0.55304265	0.7960985	0	0.143	0	0
0	0.5562517	0.793854	-3.0517577e-10	0.144	0	0
0	0.55945575	0.7915945	3.0517577e-10	0.14499998	0	0
0	0.562655	0.78931916	-5.086263e-11	0.146	0	0
0	0.5658489	0.7870289	2.7338665e-10	0.14700001	0	0
0	0.56903815	0.7847229	1.4623006e-10	0.148	0	0
0	0.57222575	0.7823987	8.455912e-10	0.149	0	0
0	0.5754018	0.78006357	6.1035155e-10	0.15	0	0
0	0.5785756	0.7777107	3.0517577e-10	0.15100001	0	0
0	0.581745	0.7753414	-3.0517577e-10	0.152	0	0
0	0.58490837	0.7729572	1.0172526e-10	0.15299998	0	0
0	0.58806705	0.7705566	1.0172526e-10	0.154	0	0
0	0.5912197	0.76814073	0	0.15500002	0	0
0	0.5943677	0.76570857	-1.0808309e-10	0.15600002	0	0
0	0.5975101	0.7632604	0	0.157	0	0
0	0.6006458	0.76079744	-2.7338665e-10	0.158	0	0
0	0.6037771	0.7583174	5.086263e-10	0.159	0	0
0	0.60690206	0.7558219	2.7974448e-10	0.16	0	0
0	0.61002135	0.7533103	1.0172526e-10	0.16099998	0	0
0	0.61313516	0.7507824	2.2888183e-10	0.162	0	0
0	0.6162437	0.748238	-1.0172526e-10	0.16300002	0	0
0	0.6193455	0.7456778	1.27156575e-11	0.16400002	0	0
0	0.6224409	0.7431019	1.7166138e-10	0.165	0	0
0	0.62553084	0.74050915	4.0690104e-10	0.166	0	0
0	0.62861407	0.73790085	-8.138021e-10	0.167	0	0
0	0.6316914	0.7352758	8.9009605e-11	0.168	0	0
0	0.63476247	0.7326345	1.0045369e-09	0.169	0	0
0	0.6378274	0.7299765	-1.6530355e-10	0.16999999	0	0
0	0.64088553	0.7273024	2.924601e-10	0.171	0	0
0	0.64393777	0.72461146	-1.0172526e-10	0.172	0	0
0	0.64698195	0.72190523	6.1035155e-10	0.173	0	0
0	0.6500204	0.71918154	4.0690104e-10	0.17399998	0	0
0	0.653052	0.71644145	1.411438e-09	0.175	0	0
0	0.6560765	0.713685	3.1789144e-11	0.17600001	0	0
0	0.6590943	0.71091175	-2.5431315e-10	0.177	0	0
0	0.6621051	0.7081217	1.27156575e-11	0.17799999	0	0
0	0.6651084	0.70531565	5.086263e-11	0.179	0	0
0	0.66810465	0.7024925	-1.0553995e-09	0.18	0	0
0	0.67109364	0.6996527	4.5776366e-10	0.18099998	0	0
0	0.67407453	0.69679695	1.2079875e-10	0.18199998	0	0
0	0.677049	0.6939234	5.2134197e-10	0.183	0	0
0	0.6800146	0.69103396	1.2207031e-09	0.184	0	0
0	0.68297315	0.6881273	-5.5948896e-10	0.18500002	0	0
0	0.6859239	0.68520385	6.3578287e-10	0.18599999	0	0
0	0.6888668	0.6822636	-5.086263e-10	0.187	0	0
0	0.6918014	0.6793067	6.3578287e-10	0.188	0	0
0	0.6947271	0.6763334	-2.2888183e-10	0.18900001	0	0
0	0.6976451	0.673343	-3.0517577e-10	0.18999998	0	0
0	0.70055526	0.67033523	1.1698404e-09	0.191	0	0
0	0.70345604	0.66731143	1.9073486e-10	0.192	0	0
0	0.70634866	0.66427046	-1.0172526e-10	0.19300002	0	0
0	0.7092324	0.66121227	7.629394e-11	0.19400002	0	0
0	0.71210736	0.6581374	1.2715658e-10	0.195	0	0
0	0.714973	0.65504616	2.5431315e-11	0.196	0	0
0	0.71782976	0.6519377	-4.83195e-10	0.19700001	0	0
0	0.7206767	0.6488129	-6.357829e-11	0.19799997	0	0
0	0.7235151	0.64567024	3.6875408e-10	0.19899999	0	0
0	0.7263437	0.64251107	1.0172526e-10	0.2	0	0
0	0.7291628	0.639335	2.2888183e-10	0.20100002	0	0
0	0.7319717	0.6361426	-3.814697e-11	0.20200002	0	0
0	0.7347709	0.632933	1.0172526e-10	0.203	0	0
0	0.7375596	0.6297072	-4.83195e-10	0.204	0	0
0	0.7403388	0.62646383	-2.6702882e-10	0.20500001	0	0
0	0.7431069	0.62320447	-7.629394e-11	0.20599997	0	0
0	0.7458652	0.6199274	3.8146972e-10	0.20699999	0	0
0	0.7486126	0.61663395	6.230672e-10	0.208	0	0
0	0.75134844	0.613325	-6.3578287e-10	0.209	0	0
0	0.75407445	0.6099975	2.5431315e-11	0.21	0	0
0	0.7567887	0.6066545	-1.7801921e-10	0.21099998	0	0
0	0.7594914	0.6032953	-3.0517577e-10	0.21199998	0	0
0	0.76218307	0.5999187	-1.0172526e-09	0.21300001	0	0
0	0.76486295	0.59652615	-2.2888183e-10	0.21400002	0	0
0	0.76753086	0.5931172	1.27156575e-11	0.21499997	0	0
0	0.77018744	0.58969104	-9.6639e-10	0.216	0	0
0	0.7728314	0.5862491	-2.6702882e-10	0.217	0	0
0	0.77546346	0.5827905	-6.230672e-10	0.218	0	0
0	0.77808267	0.579316	1.0426839e-09	0.21900003	0	0
0	0.78068906	0.5758256	-1.3987224e-10	0.22	0	0
0	0.78328305	0.5723182	3.4332276e-10	0.221	0	0
0	0.7858637	0.5687955	-3.0517577e-10	0.222	0	0
0	0.78843117	0.5652567	-8.138021e-10	0.22299998	0	0
0	0.7909854	0.5617018	2.5431315e-10	0.224	0	0
0	0.7935263	0.5581304	-3.306071e-10	0.225	0	0
0	0.7960538	0.55454236	5.086263e-11	0.226	0	0
0	0.798566	0.5509416	-6.357829e-11	0.22700003	0	0
0	0.8010648	0.54732335	-7.1207684e-10	0.228	0	0
0	0.8035496	0.5436889	2.7974448e-10	0.229	0	0
0	0.8060189	0.5400408	-1.3987224e-10	0.23	0	0
0	0.8084746	0.53637534	4.83195e-10	0.23099998	0	0
0	0.8109153	0.53269434	8.6466473e-10	0.232	0	0
0	0.81334054	0.52899903	4.704793e-10	0.233	0	0
0	0.8157502	0.52528834	-1.5258789e-10	0.234	0	0
0	0.81814504	0.521562	6.1035155e-10	0.235	0	0
0	0.8205228	0.5178223	1.7801921e-10	0.23600003	0	0
0	0.82288605	0.51406544	6.866455e-10	0.237	0	0
0	0.8252326	0.5102945	2.5431315e-10	0.238	0	0
0	0.8275632	0.5065079	2.924601e-10	0.23899998	0	0
0	0.82987726	0.5027068	-7.3750817e-10	0.23999998	0	0
0	0.8321746	0.49889058	-1.0426839e-09	0.241	0	0
0	0.834455	0.4950595	-7.3750817e-10	0.242	0	0
0	0.83671856	0.4912138	-6.993612e-10	0.243	0	0
0	0.8389653	0.48735178	7.629394e-11	0.24400003	0	0
0	0.84119403	0.48347625	7.629394e-11	0.245	0	0
0	0.8434052	0.47958574	-2.2888183e-10	0.246	0	0
0	0.8455989	0.4756797	1.1952718e-09	0.247	0	0
0	0.8477748	0.4717577	9.409586e-10	0.24799998	0	0
0	0.8499322	0.46782213	-1.6530355e-10	0.249	0	0
0	0.85207164	0.46387017	-3.5603842e-10	0.25	0	0
0	0.85419273	0.4599027	-1.7801921e-10	0.251	0	0
0	0.8562952	0.4559198	-9.6639e-10	0.25200003	0	0
0	0.85837895	0.4519207	-3.8146972e-10	0.253	0	0
0	0.86044383	0.44790605	-1.0172526e-10	0.254	0	0
0	0.8624896	0.4438749	1.3987224e-09	0.255	0	0
0	0.8645167	0.43982625	6.7392986e-10	0.256	0	0
0	0.8665244	0.43576053	-1.6530355e-10	0.257	0	0
0	0.86851263	0.43167794	1.1316935e-09	0.258	0	0
0	0.8704821	0.42757517	-6.3578287e-10	0.259	0	0
0	0.8724313	0.42345616	-5.086263e-11	0.26	0	0
0	0.87436146	0.419316	-2.5431315e-10	0.26100004	0	0
0	0.8762718	0.41515636	1.8819173e-09	0.262	0	0
0	0.8781624	0.41097605	6.866455e-10	0.263	0	0
0	0.8800329	0.40677443	-1.7801921e-10	0.26399997	0	0
0	0.88188416	0.40254897	7.8837076e-10	0.265	0	0
0	0.8837154	0.39829993	7.1207684e-10	0.266	0	0
0	0.8855273	0.39402413	-5.2134197e-10	0.267	0	0
0	0.88731873	0.3897243	2.2888183e-10	0.26800004	0	0
0	0.8890906	0.38539565	-4.9591065e-10	0.26900002	0	0
0	0.8908429	0.3810368	0	0.27000004	0	0
0	0.8925746	0.37664965	2.7974448e-10	0.271	0	0
0	0.89428717	0.3722266	-8.9009605e-10	0.27200004	0	0
0	0.8959802	0.36776796	4.9591065e-10	0.27299997	0	0
0	0.8976529	0.36327448	5.086263e-10	0.27399996	0	0
0	0.89930624	0.3587405	1.1698404e-09	0.275	0	0
0	0.9009403	0.3541626	3.8146972e-10	0.276	0	0
0	0.9025547	0.34954	5.849202e-10	0.27700004	0	0
0	0.9041499	0.34486827	1.7801921e-09	0.278	0	0
0	0.90572554	0.34014574	5.3405763e-10	0.279	0	0
0	0.907285	0.3353507	-1.5258789e-10	0.28	0	0
0	0.9088229	0.33050844	-1.5258789e-09	0.281	0	0
0	0.9103397	0.32561392	-1.7293295e-09	0.282	0	0
0	0.91184074	0.32063267	-1.5513102e-09	0.283	0	0
0	0.9133239	0.31557074	-5.086263e-11	0.284	0	0
0	0.9147891	0.3104221	8.138021e-10	0.28500003	0	0
0	0.916238	0.3051698	1.5258789e-10	0.286	0	0
0	0.9176707	0.2998051	1.5258789e-09	0.287	0	0
0	0.91908884	0.29430702	-2.5431315e-10	0.288	0	0
0	0.92049366	0.28865406	1.6021728e-09	0.289	0	0
0	0.9218876	0.28281155	1.7293295e-09	0.28999996	0	0
0	0.9232743	0.27673155	2.2888183e-10	0.291	0	0
0	0.9246575	0.27035314	4.83195e-10	0.292	0	0
0	0.9260474	0.2635463	9.155273e-10	0.293	0	0
0	0.9274575	0.2561173	-1.0172526e-10	0.29400003	0	0
0	0.92892635	0.24756594	7.8837076e-10	0.295	0	0
0	0.930585	0.23617513	5.086263e-11	0.296	0	0
0	0.93349856	2.4140778e-05	-8.5194907e-10	0.29699996	0	0
0	0.93409795	1.38887535e-05	9.536743e-11	0.298	0	0
0	0.9346942	7.830149e-06	4.736582e-10	0.29899997	0	0
0	0.9352874	4.5595807e-06	3.6239625e-10	0.3	0	0
0	0.93587697	2.6283774e-06	-3.496806e-10	0.301	0	0
0	0.936463	1.4921061e-06	3.6557515e-10	0.30200002	0	0
0	0.93704593	9.238688e-07	-1.7293295e-09	0.30300003	0	0
0	0.93762565	5.486043e-07	-1.8437704e-10	0.304	0	0
0	0.9382015	3.1300863e-07	5.5631e-10	0.305	0	0
0	0.93877393	1.7125447e-07	1.27156575e-11	0.30599996	0	0
0	0.93934387	1.0375977e-07	2.1966298e-09	0.307	0	0
0	0.93990916	4.9438476e-08	2.8610229e-11	0.308	0	0
0	0.9404719	3.0263266e-08	3.8782755e-10	0.309	0	0
0	0.94103116	1.3885498e-08	-6.1035155e-10	0.31000003	0	0
0	0.9415871	5.340576e-09	2.384186e-10	0.311	0	0
0	0.9421398	-2.1870932e-09	3.6875408e-10	0.31200004	0	0
0	0.9426892	-2.746582e-09	3.8146972e-10	0.31299996	0	0
0	0.94323564	-3.0517577e-10	7.8201295e-10	0.314	0	0
0	0.9437781	-4.1707358e-09	8.138021e-10	0.31499997	0	0
0	0.9443177	-5.1879883e-09	2.9563904e-10	0.316	0	0
0	0.944855	-1.2969971e-08	2.8292338e-10	0.317	0	0
0	0.9453873	-7.2224933e-09	5.4359434e-10	0.318	0	0
0	0.94591737	-5.1879883e-09	1.0903677e-09	0.31900004	0	0
0	0.94644415	-6.1035155e-09	-5.2134197e-10	0.32	0	0
0	0.9469677	-5.4423013e-09	1.5894572e-10	0.321	0	0
0	0.94748825	-1.7293295e-09	-1.4940897e-10	0.32199997	0	0
0	0.9480059	-6.2052408e-09	8.869171e-10	0.32299998	0	0
0	0.9485199	-5.493164e-09	-1.3701121e-09	0.324	0	0
0	0.9490312	-6.612142e-09	-8.074443e-10	0.325	0	0
0	0.9495388	-8.138021e-09	9.886424e-10	0.32600003	0	0
0	0.95004386	-1.5258789e-09	2.9563904e-10	0.327	0	0
0	0.9505456	-2.0345052e-09	6.039937e-11	0.32800004	0	0
0	0.95104414	-7.425944e-09	8.074443e-10	0.329	0	0
0	0.95154	-6.2561036e-09	-2.638499e-10	0.33	0	0
0	0.9520327	-9.396871e-09	1.2079875e-09	0.33099997	0	0
0	0.9525224	-6.4086914e-09	-2.924601e-10	0.332	0	0
0	0.9530088	-5.79834e-09	-1.4750163e-09	0.333	0	0
0	0.9534923	-7.781982e-09	6.6757204e-11	0.334	0	0
0	0.95397294	-1.7293295e-09	-1.2588501e-09	0.33500004	0	0
0	0.95445055	-8.3414715e-09	7.629394e-11	0.336	0	0
0	0.954925	-6.5104167e-09	1.5894572e-11	0.337	0	0
0	0.9553968	-1.11389165e-08	2.5431315e-11	0.338	0	0
0	0.9558652	-1.1342366e-08	-4.1643777e-10	0.339	0	0
0	0.95633155	-4.526774e-09	1.2016297e-09	0.33999997	0	0
0	0.95679384	-8.49406e-09	5.880992e-10	0.341	0	0
0	0.95725375	-7.3242186e-09	3.9100648e-10	0.342	0	0
0	0.9577106	-8.951823e-09	5.531311e-10	0.34300002	0	0
0	0.9581646	-8.290609e-09	3.4332276e-10	0.344	0	0
0	0.95861584	-9.714762e-09	-7.311503e-11	0.34500003	0	0
0	0.9590642	-5.0354005e-09	-2.5431315e-11	0.346	0	0
0	0.9595094	-2.5939941e-09	-1.3891855e-09	0.347	0	0
0	0.9599519	-7.680257e-09	3.8146972e-10	0.34799996	0	0
0	0.9603916	-5.5948894e-09	-7.629394e-11	0.349	0	0
0	0.9608283	-6.4595542e-09	-5.817413e-10	0.35	0	0
0	0.96126217	-8.347829e-09	-6.167094e-10	0.351	0	0
0	0.9616932	-4.272461e-09	1.27156575e-11	0.35200003	0	0
0	0.9621215	-2.89917e-09	-1.4305115e-09	0.35299996	0	0
0	0.9625469	-8.036295e-09	2.4795532e-10	0.354	0	0
0	0.96296936	-6.8155925e-09	-6.389618e-10	0.35499996	0	0
0	0.96338916	-6.1416627e-09	3.5921732e-10	0.35599998	0	0
0	0.96380603	-4.526774e-09	1.6848246e-10	0.35699996	0	0
0	0.9642201	-3.967285e-09	6.4531963e-10	0.358	0	0
0	0.96463144	-1.3224284e-09	3.7511189e-10	0.359	0	0
0	0.96504	-7.0699055e-09	2.193451e-10	0.36	0	0
0	0.9654458	-7.6293943e-10	-2.638499e-10	0.36100003	0	0
0	0.96584874	-5.5440266e-09	6.5167743e-10	0.36199996	0	0
0	0.96624875	3.306071e-10	1.0045369e-09	0.363	0	0
0	0.96664625	-9.155274e-09	9.536744e-10	0.36399996	0	0
0	0.9670407	-4.0181476e-09	5.1816307e-10	0.365	0	0
0	0.96743315	-1.373291e-08	2.7338665e-10	0.366	0	0
0	0.9678219	-6.4086914e-09	-5.8015187e-10	0.367	0	0
0	0.96820855	-8.799235e-09	-4.5140583e-10	0.368	0	0
0	0.96859133	-5.391439e-09	-5.118052e-10	0.369	0	0
0	0.9689721	-6.00179e-09	-8.869171e-10	0.37000003	0	0
0	0.96935	-6.891886e-09	8.2651774e-11	0.37099996	0	0
0	0.9697252	-7.0953368e-09	2.8610229e-11	0.37199998	0	0
0	0.9700976	-1.6021728e-09	-1.1348724e-09	0.37299997	0	0
0	0.9704672	-3.4077963e-09	2.4318694e-10	0.374	0	0
0	0.9708342	-4.679362e-09	3.9418538e-10	0.375	0	0
0	0.97119814	-5.79834e-09	1.1444092e-09	0.376	0	0
0	0.97155946	-6.2052408e-09	-7.947286e-11	0.37700003	0	0
0	0.9719179	-1.7547608e-09	-2.2570291e-10	0.37800002	0	0
0	0.97227365	-1.9073487e-09	-7.4068707e-10	0.37900004	0	0
0	0.9726267	-1.3987224e-09	-1.1761983e-10	0.37999997	0	0
0	0.97297674	-8.773804e-09	1.7706553e-09	0.38099998	0	0
0	0.9733242	-2.7402243e-09	8.2651774e-11	0.382	0	0
0	0.9736689	-2.0345052e-10	-7.311503e-10	0.383	0	0
0	0.97401065	-1.3478597e-09	-5.976359e-10	0.384	0	0
0	0.9743495	-7.2224933e-09	-8.5512797e-10	0.385	0	0
0	0.9746856	1.5258789e-09	1.2397766e-10	0.38600004	0	0
0	0.975019	-6.612142e-10	-5.5948896e-10	0.38699993	0	0
0	0.9753496	-1.5258789e-09	-3.33786e-10	0.38800004	0	0
0	0.9756771	-3.890991e-09	1.0824204e-09	0.38899997	0	0
0	0.97600186	-6.5104167e-09	-3.9100648e-10	0.39	0	0
0	0.9763237	-3.4077963e-09	2.2570291e-10	0.391	0	0
0	0.9766429	2.6448568e-09	1.5385946e-09	0.392	0	0
0	0.97695917	-8.138021e-10	1.0935466e-09	0.39300004	0	0
0	0.9772725	-1.6530355e-09	1.9454955e-09	0.39400002	0	0
0	0.97758293	-8.417765e-09	1.3923646e-09	0.39500004	0	0
0	0.97789043	-8.49406e-09	-1.14440915e-10	0.39599994	0	0
0	0.9781952	2.339681e-09	3.496806e-10	0.39700004	0	0
0	0.9784967	-7.0699055e-09	3.306071e-10	0.39799997	0	0
0	0.9787954	-3.9164227e-09	1.4623006e-10	0.39899996	0	0
0	0.97909117	-4.8828124e-09	-1.0967255e-09	0.4	0	0
0	0.9787971	1.5258789e-10	6.3260397e-10	0.39899996	0	0
0	0.9784982	-3.0263265e-09	-1.4177958e-09	0.39799997	0	0
0	0.97819656	-1.5004475e-09	1.1253357e-09	0.39700004	0	0
0	0.9778921	2.5431315e-09	1.11262e-09	0.39599994	0	0
0	0.9775846	8.6466473e-10	-1.04904176e-10	0.39500004	0	0
0	0.9772742	2.6448568e-09	-2.2252401e-10	0.39400002	0	0
0	0.9769606	8.214315e-09	-7.311503e-10	0.39300004	0	0
0	0.9766446	1.6784668e-09	-1.0808309e-10	0.392	0	0
0	0.97632563	5.5440266e-09	4.800161e-10	0.391	0	0
0	0.9760035	1.6276042e-09	1.8056233e-09	0.39	0	0
0	0.97567856	8.6466473e-10	1.5195211e-09	0.38899997	0	0
0	0.97535115	7.6293943e-10	2.002716e-10	0.38800004	0	0
0	0.97502	-4.0435792e-09	7.1843465e-10	0.38699993	0	0
0	0.9746871	-3.6875407e-09	3.496806e-10	0.38600004	0	0
0	0.97435117	2.7720133e-09	4.673004e-10	0.385	0	0
0	0.9740123	1.2715658e-10	1.7642975e-09	0.384	0	0
0	0.9736704	-5.8237712e-09	1.8755594e-10	0.383	0	0
0	0.97332585	-1.6784668e-09	-6.6757204e-11	0.382	0	0
0	0.97297865	2.5431315e-11	1.7579397e-09	0.38099998	0	0
0	0.97262836	-2.155304e-09	-4.9273174e-10	0.37999997	0	0
0	0.9722752	5.086263e-09	-3.4332276e-10	0.37900004	0	0
0	0.9719198	6.2306724e-09	-1.9137065e-09	0.37800002	0	0
0	0.97156113	-7.3750817e-10	8.583069e-11	0.37700003	0	0
0	0.9711996	2.5431315e-10	-1.2397766e-10	0.376	0	0
0	0.97083575	1.8819173e-09	-1.1698404e-09	0.375	0	0
0	0.97046894	-1.1952718e-09	-3.2107036e-10	0.374	0	0
0	0.97009915	-2.110799e-09	-7.661184e-10	0.37299997	0	0
0	0.96972686	-1.4750163e-09	7.8201295e-10	0.37199998	0	0
0	0.96935177	-5.9509278e-09	1.0363261e-09	0.37099996	0	0
0	0.96897376	-4.3233235e-09	-1.0490417e-09	0.37000003	0	0
0	0.9685931	-5.645752e-09	3.973643e-10	0.369	0	0
0	0.96820956	-5.1879883e-09	-5.610784e-10	0.368	0	0
0	0.96782273	-6.5104167e-09	-1.0808309e-09	0.367	0	0
0	0.96743435	-1.93278e-09	7.7883405e-10	0.366	0	0
0	0.9670425	-2.6957194e-09	-2.0345052e-10	0.365	0	0
0	0.9666479	-8.6466473e-10	9.536743e-12	0.36399996	0	0
0	0.9662506	-1.1189779e-09	8.5830687e-10	0.363	0	0
0	0.96585053	-6.1035155e-09	4.418691e-10	0.36199996	0	0
0	0.9654475	-4.9336752e-09	-1.1634826e-09	0.36100003	0	0
0	0.9650419	-1.2461345e-08	4.196167e-10	0.36	0	0
0	0.96463335	-4.221598e-09	1.3224284e-09	0.359	0	0
0	0.96422195	-3.6875407e-09	-1.4432271e-09	0.358	0	0
0	0.963808	-2.9754639e-09	-4.1325887e-10	0.35699996	0	0
0	0.96339095	2.4668376e-09	-6.834666e-10	0.35599998	0	0
0	0.9629713	1.4750163e-09	-1.7261506e-09	0.35499996	0	0
0	0.96254873	-8.5957845e-09	6.262461e-10	0.354	0	0
0	0.96212333	-6.7138672e-09	-8.2969664e-10	0.35299996	0	0
0	0.9616952	-9.6639e-10	-1.6212464e-09	0.35200003	0	0
0	0.96126425	-3.306071e-09	7.692973e-10	0.351	0	0
0	0.9608302	-3.9482115e-09	-6.993612e-11	0.35	0	0
0	0.9603934	-6.2306724e-09	4.6888987e-10	0.349	0	0
0	0.95995396	1.373291e-09	1.2572606e-09	0.34799996	0	0
0	0.95951134	-7.019043e-09	-1.1952718e-09	0.347	0	0
0	0.9590663	-7.3242186e-09	-1.4623006e-10	0.346	0	0
0	0.9586178	-4.0181476e-09	6.548564e-10	0.34500003	0	0
0	0.9581669	-6.306966e-09	8.106232e-10	0.344	0	0
0	0.9577128	-5.137126e-09	1.9709269e-10	0.34300002	0	0
0	0.9572557	-5.340576e-09	4.227956e-10	0.342	0	0
0	0.9567955	-1.0223388e-08	-3.496806e-10	0.341	0	0
0	0.9563332	-5.2897136e-09	3.306071e-10	0.33999997	0	0
0	0.9558675	-7.578532e-09	6.357829e-11	0.339	0	0
0	0.95539886	-5.8492025e-09	-1.7293295e-09	0.338	0	0
0	0.9549272	-7.73112e-09	7.1207684e-10	0.337	0	0
0	0.9544524	-1.1291504e-08	-1.7261506e-09	0.336	0	0
0	0.953975	-6.866455e-09	7.5340273e-10	0.33500004	0	0
0	0.9534945	-6.612142e-10	-2.7020772e-10	0.334	0	0
0	0.95301086	1.0172526e-10	1.1825562e-09	0.333	0	0
0	0.9525242	-1.0172526e-10	5.5631e-10	0.332	0	0
0	0.9520348	-3.306071e-09	-6.0717265e-10	0.33099997	0	0
0	0.9515423	-1.2842815e-09	3.4650166e-10	0.33	0	0
0	0.95104665	-4.221598e-09	-4.1007994e-10	0.329	0	0
0	0.9505473	-5.9509278e-09	9.346008e-10	0.32800004	0	0
0	0.95004606	3.0517577e-09	-2.5431315e-11	0.327	0	0
0	0.9495413	-4.679362e-09	1.2715658e-10	0.32600003	0	0
0	0.9490333	-3.153483e-09	2.7338665e-10	0.325	0	0
0	0.9485221	-4.3741863e-09	-5.1816307e-10	0.324	0	0
0	0.948008	-6.4595542e-09	-5.912781e-10	0.32299998	0	0
0	0.9474905	-7.2224933e-09	-8.010864e-10	0.32199997	0	0
0	0.94697	-7.616679e-09	-3.1789144e-10	0.321	0	0
0	0.9464465	-5.493164e-09	6.930033e-10	0.32	0	0
0	0.9459198	-8.951823e-09	1.0808309e-09	0.31900004	0	0
0	0.9453898	-3.0517577e-09	2.2252401e-10	0.318	0	0
0	0.94485617	-4.0690104e-10	-3.115336e-10	0.317	0	0
0	0.9443202	-1.8310546e-09	-3.1789144e-10	0.316	0	0
0	0.9437806	-7.1207684e-09	-4.83195e-10	0.31499997	0	0
0	0.9432377	-5.137126e-09	7.629394e-11	0.314	0	0
0	0.94269085	-4.3741863e-09	-4.9908955e-10	0.31299996	0	0
0	0.94214237	-2.6448568e-09	-9.536743e-12	0.31200004	0	0
0	0.9415893	-9.155273e-10	6.993612e-10	0.311	0	0
0	0.94103366	-1.0935466e-09	9.218852e-11	0.31000003	0	0
0	0.9404744	-5.747477e-09	-3.274282e-10	0.309	0	0
0	0.93991166	-5.645752e-09	6.0081484e-10	0.308	0	0
0	0.939346	-5.6966147e-09	1.5036266e-09	0.307	0	0
0	0.93877643	-4.577637e-09	4.5776366e-10	0.30599996	0	0
0	0.93820405	-3.153483e-09	2.9563904e-10	0.305	0	0
0	0.93762815	-2.0853679e-09	1.9073486e-10	0.304	0	0
0	0.9370475	3.2552083e-09	5.0226845e-10	0.30300003	0	0
0	0.9364656	-6.1543783e-09	7.3750817e-10	0.30200002	0	0
0	0.9358796	4.5776366e-10	-1.4527639e-09	0.301	0	0
0	0.93528956	-3.306071e-09	5.3405763e-10	0.3	0	0
0	0.9346968	-9.6639e-10	-3.6557515e-10	0.29899997	0	0
0	0.9341002	1.1698404e-09	-8.010864e-10	0.298	0	0
0	0.9335	-4.4250488e-09	-4.4504803e-10	0.29699996	0	0
0	0.93289655	-2.5939941e-09	-6.4531963e-10	0.296	0	0
0	0.9322885	-6.917318e-09	-2.0980835e-10	0.295	0	0
0	0.93167865	-9.256999e-09	4.800161e-10	0.29400003	0	0
0	0.9310645	-1.01216635e-08	-5.976359e-10	0.293	0	0
0	0.9304467	-1.0070801e-08	-1.9073486e-10	0.292	0	0
0	0.9298254	-7.781982e-09	4.196167e-10	0.291	0	0
0	0.92920053	-3.5603842e-10	-3.7511189e-10	0.28999996	0	0
0	0.928572	-8.5957845e-09	4.9591065e-10	0.289	0	0
0	0.9279398	1.5258789e-10	-5.5631e-10	0.288	0	0
0	0.92730415	-9.256999e-09	3.528595e-10	0.287	0	0
0	0.92666477	-2.0345052e-09	4.3233236e-10	0.286	0	0
0	0.9260216	-2.8483074e-09	4.3551127e-10	0.28500003	0	0
0	0.9253748	-1.24104815e-08	7.661184e-10	0.284	0	0
0	0.9247244	-8.8500975e-09	3.8464865e-10	0.283	0	0
0	0.92406917	-5.0354005e-09	2.0631155e-09	0.282	0	0
0	0.92341226	-6.357829e-09	-8.583069e-11	0.281	0	0
0	0.9227504	-6.306966e-09	9.568533e-10	0.28	0	0
0	0.922085	-7.3242186e-09	2.0662944e-10	0.279	0	0
0	0.92141604	-7.6293943e-10	2.7974448e-10	0.278	0	0
0	0.92074305	-4.4759116e-09	8.869171e-10	0.27700004	0	0
0	0.92006564	-7.1207684e-09	6.4214073e-10	0.276	0	0
0	0.9193842	-1.1698405e-08	-1.0999044e-09	0.275	0	0
0	0.91870123	-7.019043e-09	2.8610229e-11	0.27399996	0	0
0	0.91801304	-1.7293295e-09	5.4041546e-11	0.27299997	0	0
0	0.91732097	1.2207031e-09	-4.0372214e-10	0.27200004	0	0
0	0.9166249	-1.2105306e-08	-6.1035155e-10	0.271	0	0
0	0.9159249	-6.612142e-09	3.1789144e-10	0.27000004	0	0
0	0.91522104	-1.8819173e-09	8.2651774e-11	0.26900002	0	0
0	0.914513	-1.1088053e-08	5.7220458e-11	0.26800004	0	0
0	0.91380167	-4.9336752e-09	3.6875408e-10	0.267	0	0
0	0.9130858	-5.645752e-09	4.1007994e-10	0.266	0	0
0	0.9123667	-6.4086914e-09	1.5258789e-10	0.265	0	0
0	0.91164315	-7.019043e-09	-5.722046e-10	0.26399997	0	0
0	0.91091543	-6.7138672e-09	-3.6875408e-10	0.263	0	0
0	0.91018397	-5.6330363e-09	5.976359e-10	0.262	0	0
0	0.90944815	-5.5440266e-09	1.8437704e-10	0.26100004	0	0
0	0.90870875	-2.2888185e-09	-5.3405763e-10	0.26	0	0
0	0.90796477	-1.7801921e-09	-5.6584676e-10	0.259	0	0
0	0.9072164	2.7974447e-09	3.6875408e-10	0.258	0	0
0	0.9064658	-4.768372e-10	3.0517577e-10	0.257	0	0
0	0.90571	-1.7293295e-09	9.854635e-10	0.256	0	0
0	0.9049501	-4.4759116e-09	1.0172526e-10	0.255	0	0
0	0.9041861	-1.8310546e-09	7.05719e-10	0.254	0	0
0	0.90341794	-2.4414062e-09	-7.5022377e-10	0.253	0	0
0	0.9026444	-2.6448568e-09	-4.83195e-10	0.25200003	0	0
0	0.9018692	-2.89917e-09	2.1616618e-10	0.251	0	0
0	0.9010884	-1.6021728e-09	-2.5431315e-10	0.25	0	0
0	0.90030354	-2.1362305e-09	-1.449585e-09	0.249	0	0
0	0.8995147	-6.4086914e-09	1.14440915e-10	0.24799998	0	0
0	0.8987217	-5.2897136e-09	5.6584676e-10	0.247	0	0
0	0.89792424	-8.8500975e-09	4.704793e-10	0.246	0	0
0	0.8971227	-1.1444092e-09	3.2424927e-10	0.245	0	0
0	0.896317	-1.93278e-09	-1.2715658e-10	0.24400003	0	0
0	0.89550686	-3.2552083e-09	1.3351441e-10	0.243	0	0
0	0.8946929	1.4241537e-09	-1.3351441e-10	0.242	0	0
0	0.89387393	-1.6276042e-09	7.05719e-10	0.241	0	0
0	0.89305127	-2.4414062e-09	2.4795532e-10	0.23999998	0	0
0	0.8922241	-5.2452087e-09	1.001358e-09	0.23899998	0	0
0	0.8913923	-5.79834e-09	5.086263e-10	0.238	0	0
0	0.8905569	-2.1362305e-09	3.306071e-10	0.237	0	0
0	0.88971674	-6.00179e-09	-2.0980835e-10	0.23600003	0	0
0	0.8888727	-2.2379558e-09	8.201599e-10	0.235	0	0
0	0.888024	-3.7638346e-09	5.086263e-10	0.234	0	0
0	0.8871709	-7.1207684e-09	2.3523966e-10	0.233	0	0
0	0.8863136	-1.2105306e-08	-4.641215e-10	0.232	0	0
0	0.8854518	-6.6630044e-09	-2.3523966e-10	0.23099998	0	0
0	0.88458586	-1.5258789e-09	-1.0617575e-09	0.23	0	0
0	0.8837156	-6.2052408e-09	6.0399374e-10	0.229	0	0
0	0.8828401	-7.3242186e-09	-3.9418538e-10	0.228	0	0
0	0.88196146	-7.629395e-09	1.557668e-10	0.22700003	0	0
0	0.8810777	-9.053548e-09	-9.441375e-10	0.226	0	0
0	0.8801892	-5.5948894e-09	-5.149841e-10	0.225	0	0
0	0.8792971	-2.0345052e-09	6.357829e-11	0.224	0	0
0	0.8783998	-1.6276042e-09	2.4477642e-10	0.22299998	0	0
0	0.87749875	-7.527669e-09	-8.2969664e-10	0.222	0	0
0	0.8765931	-5.391439e-09	1.0426839e-09	0.221	0	0
0	0.8756831	-6.357829e-09	2.415975e-10	0.22	0	0
0	0.87476856	-6.5104167e-09	2.3206075e-10	0.21900003	0	0
0	0.8738494	-5.5948894e-09	-1.27156575e-11	0.218	0	0
0	0.87292576	-1.3631185e-08	9.536743e-11	0.217	0	0
0	0.8719979	-7.73112e-09	-9.155273e-10	0.216	0	0
0	0.8710654	-4.4250488e-09	-3.496806e-10	0.21499997	0	0
0	0.87012786	-7.73112e-09	1.3828277e-09	0.21400002	0	0
0	0.8691873	-6.4086914e-09	7.8837076e-10	0.21300001	0	0
0	0.86824137	5.086263e-10	-1.4050802e-09	0.21199998	0	0
0	0.8672909	-1.5767415e-09	1.5894572e-10	0.21099998	0	0
0	0.86633635	-1.3224284e-09	-8.5194907e-10	0.21	0	0
0	0.86537635	-3.153483e-09	5.3405763e-10	0.209	0	0