# t (s)	mx ()	my ()	mz ()	B_extx (T)	B_exty (T)	B_extz (T)
0	-6.236235e-09	0.9902629	3.814697e-11	0	0	0
0	-1.1601647e-08	0.9903163	-2.4636586e-11	0	0.001	0
0	-2.3267269e-08	0.9903694	2.9444694e-10	0	0.002	0
0	-4.1957698e-08	0.9904223	3.1630198e-10	0	0.003	0
0	-7.787943e-08	0.9904749	2.6981037e-10	0	0.004	0
0	-1.3711214e-07	0.9905271	4.4902165e-11	0	0.005	0
0	-2.4809995e-07	0.9905792	-2.5431315e-10	0	0.006	0
0	-4.6803396e-07	0.9906308	-2.5431315e-11	0	0.007	0
0	-8.714329e-07	0.99068207	-8.583069e-11	0	0.008	0
0	8.670362e-07	0.9768306	1.14440915e-10	0	0.009	0
0	-1.6657511e-09	0.97706085	4.1325887e-11	0	0.01	0
0	-1.6276042e-09	0.9772894	2.972285e-10	0	0.011000001	0
0	-2.0345052e-09	0.9775158	-8.106232e-11	0	0.012	0
0	-3.6621093e-09	0.9777403	4.3710074e-11	0	0.013	0
0	-3.0517577e-09	0.9779628	1.4305114e-11	0	0.014	0
0	-2.3523967e-09	0.97818345	3.496806e-11	0	0.014999999	0
0	-1.5258789e-09	0.97840196	-7.629394e-11	0	0.016	0
0	-2.8546652e-09	0.97861874	-1.4106433e-10	0	0.017000003	0
0	-2.6448568e-09	0.97883373	4.2120616e-11	0	0.018	0
0	-1.6276042e-09	0.9790469	-4.4345855e-10	0	0.019	0
0	-5.2134197e-10	0.9792581	-1.9232432e-10	0	0.02	0
0	-3.2202403e-09	0.9794678	1.3828277e-10	0	0.021	0
0	-4.0690105e-09	0.9796761	-6.643931e-10	0	0.022000002	0
0	-3.4077963e-09	0.9798819	-1.557668e-10	0	0.023	0
0	-1.7547608e-09	0.98008627	-1.5179316e-10	0	0.024	0
0	-2.7974447e-09	0.98028904	-4.911423e-10	0	0.025	0
0	-2.0853679e-09	0.9804903	-2.193451e-10	0	0.026	0
0	-2.0853679e-09	0.98068976	-1.2477239e-10	0	0.027	0
0	-6.8155925e-09	0.98088825	9.568533e-10	0	0.028	0
0	-6.612142e-10	0.98108435	5.5472055e-10	0	0.029	0
0	-2.5431315e-09	0.9812794	1.2397766e-10	0	0.029999997	0
0	-3.4332275e-09	0.9814728	-4.4504803e-11	0	0.030999998	0
0	-3.458659e-09	0.9816647	-3.8941703e-10	0	0.032	0
0	-3.306071e-09	0.9818551	-3.814697e-11	0	0.032999996	0
0	-7.6293943e-10	0.98204416	-1.6530355e-10	0	0.034000006	0
0	-3.000895e-09	0.98223186	-7.947286e-11	0	0.035	0
0	-1.0426839e-09	0.9824181	3.814697e-11	0	0.036	0
0	-2.2379558e-09	0.9826029	-3.4014383e-10	0	0.037	0
0	-1.6530355e-09	0.9827865	-1.04904176e-10	0	0.038	0
0	-3.0517577e-09	0.9829686	-2.8610229e-11	0	0.039000005	0
0	-7.3750817e-10	0.98314947	-1.9073486e-10	0	0.04	0
0	-2.3905435e-09	0.98332906	5.5631003e-12	0	0.041000005	0
0	-1.8056233e-09	0.9835074	1.27156575e-11	0	0.042	0
0	-1.6276042e-09	0.98368436	-5.4041546e-11	0	0.043	0
0	-1.4241537e-09	0.9838602	-3.2583873e-11	0	0.044000003	0
0	-2.0853679e-09	0.9840348	1.724561e-10	0	0.045	0
0	-3.5603842e-10	0.9842081	2.8610229e-11	0	0.046	0
0	-4.83195e-10	0.9843803	-2.8769176e-10	0	0.047	0
0	-1.8310546e-09	0.9845514	-2.304713e-11	0	0.048	0
0	-2.746582e-09	0.98472124	1.3669332e-10	0	0.049	0
0	-2.746582e-09	0.98489	1.27156575e-11	0	0.05	0
0	-2.5939941e-09	0.9850576	9.2983246e-11	0	0.051	0
0	-8.138021e-10	0.98522437	6.993612e-11	0	0.052	0
0	-3.1026204e-09	0.98538977	-1.9073486e-10	0	0.052999996	0
0	0	0.98555416	-6.834666e-11	0	0.054	0
0	-3.8146974e-09	0.9857174	2.805392e-10	0	0.055	0
0	-1.5767415e-09	0.98587966	-1.5099843e-11	0	0.056	0
0	-2.1870932e-09	0.98604107	1.8914541e-10	0	0.057	0
0	-4.5776366e-10	0.98620135	1.1761983e-10	0	0.058	0
0	-2.8483074e-09	0.9863607	3.4809114e-10	0	0.059000008	0
0	-2.7974447e-09	0.98651904	-1.3033549e-10	0	0.059999995	0
0	-1.5258789e-10	0.9866766	-1.04904176e-10	0	0.061000008	0
0	-2.2888185e-09	0.9868329	1.1126201e-10	0	0.061999995	0
0	-8.392334e-10	0.9869884	-8.185705e-11	0	0.06300001	0
0	-3.3315022e-09	0.9871431	-1.0331472e-10	0	0.064	0
0	-2.5431315e-09	0.98729676	1.8755594e-10	0	0.065	0
0	-3.7638346e-09	0.98744977	3.274282e-10	0	0.06599999	0
0	-1.3987224e-09	0.98760164	1.1126201e-11	0	0.06700001	0
0	-2.6448568e-09	0.9877529	2.5431315e-11	0	0.06800001	0
0	-4.272461e-09	0.9879031	-1.27156575e-11	0	0.069	0
0	-2.7974447e-09	0.9880527	8.583069e-11	0	0.07	0
0	-1.7293295e-09	0.9882014	-8.6625415e-11	0	0.071	0
0	-1.1189779e-09	0.98834914	-9.218852e-11	0	0.072	0
0	-2.1616617e-09	0.98849636	2.415975e-10	0	0.073	0
0	-3.000895e-09	0.9886425	1.14440915e-10	0	0.074	0
0	-1.3224284e-09	0.9887881	-1.7881394e-10	0	0.075	0
0	-3.2552083e-09	0.988933	1.04904176e-10	0	0.076	0
0	-2.8483074e-09	0.98907727	-2.7656555e-10	0	0.077	0
0	-1.27156575e-11	0.9892206	-7.311503e-11	0	0.07800001	0
0	-1.5004475e-09	0.98936325	2.6543936e-10	0	0.079	0
0	-9.536744e-10	0.98950523	-3.7193298e-10	0	0.08	0
0	-2.339681e-09	0.98964655	5.086263e-11	0	0.081	0
0	-2.861023e-09	0.9897873	6.5167746e-11	0	0.08200001	0
0	-3.5603842e-10	0.9899273	2.749761e-10	0	0.083	0
0	-3.6875407e-09	0.9900669	1.7642975e-10	0	0.084	0
0	-1.5767415e-09	0.99020565	-1.8278758e-10	0	0.08499999	0
0	-2.22524e-09	0.99034375	-9.8546345e-11	0	0.086	0
0	-1.93278e-09	0.9904814	2.7020773e-11	0	0.08699999	0
0	-2.0599364e-09	0.99061835	-2.026558e-10	0	0.08800001	0
0	-2.0853679e-09	0.9907548	2.1775563e-10	0	0.088999994	0
0	-1.1952718e-09	0.99089086	-2.2411346e-10	0	0.09	0
0	-3.2552083e-09	0.9910262	2.3921332e-10	0	0.09099999	0
0	-2.7211506e-09	0.9911609	-3.1789144e-12	0	0.092	0
0	-2.0853679e-09	0.9912954	1.001358e-10	0	0.092999995	0
0	-5.3405763e-10	0.99142915	-4.9273172e-11	0	0.094	0
0	-1.7293295e-09	0.9915626	2.2093455e-10	0	0.09499999	0
0	-2.5431315e-09	0.9916955	-3.1789144e-11	0	0.096	0
0	-7.8837076e-10	0.991828	-2.2331874e-10	0	0.09700001	0
0	3.5603842e-10	0.99196	-5.00679e-11	0	0.098	0
0	-1.2969971e-09	0.9920918	1.6848246e-10	0	0.098999985	0
0	-1.373291e-09	0.9922229	-3.9259593e-10	0	0.1	0
0	-7.1207684e-10	0.99235374	2.4636586e-11	0	0.10100001	0
0	3.6875408e-10	0.9924844	4.6888987e-10	0	0.102	0
0	-1.1952718e-09	0.9926144	-1.6848246e-10	0	0.102999985	0
0	-1.5258789e-09	0.99274415	-2.4795532e-10	0	0.104	0
0	-3.890991e-09	0.9928737	-7.947286e-12	0	0.105	0
0	1.5322368e-09	0.99300283	4.418691e-10	0	0.10599999	0
0	-1.2969971e-09	0.9931319	-2.4954477e-10	0	0.10700001	0
0	-4.196167e-10	0.9932603	-1.8040339e-10	0	0.108	0
0	-1.9582114e-09	0.9933888	1.8517177e-10	0	0.109	0
0	-3.0454e-09	0.99351686	1.6689301e-11	0	0.11	0
0	-1.6848246e-09	0.9936449	-4.2438508e-10	0	0.111	0
0	-6.930033e-10	0.9937726	5.7220458e-11	0	0.112	0
0	-2.8864542e-09	0.9939001	1.0331472e-10	0	0.113	0
0	-3.751119e-09	0.9940276	-3.0199687e-10	0	0.114	0
0	-6.637573e-09	0.994155	-3.496806e-10	0	0.115	0
0	-6.262461e-09	0.994282	2.662341e-10	0	0.116	0
0	-1.1316935e-08	0.9944091	1.0967255e-10	0	0.117	0
0	-1.1008581e-08	0.9945358	-3.1789144e-11	0	0.118000016	0
0	-1.9334157e-08	0.9946621	-1.8914541e-10	0	0.119	0
0	-2.7999878e-08	0.99478644	-2.527237e-10	0	0.11999999	0
0	-1.0602574e-07	0.9948813	2.78155e-10	0	0.121	0
0	-7.3186555e-08	0.99490947	-2.3841857e-11	0	0.122000016	0
0	-6.005009e-08	0.9949354	1.2556711e-10	0	0.123	0
0	-4.6525795e-08	0.994961	-4.4504803e-11	0	0.12399999	0
0	-4.0328104e-08	0.99498653	-2.9087066e-10	0	0.125	0
0	-3.2462676e-08	0.995012	2.4795532e-10	0	0.12600002	0
0	-2.7631124e-08	0.9950371	-6.5167746e-11	0	0.127	0
0	-2.5294622e-08	0.9950621	-1.1126201e-10	0	0.128	0
0	-2.1309853e-08	0.99508697	-1.637141e-10	0	0.129	0
0	-1.992623e-08	0.99511164	-1.4384588e-10	0	0.13	0
0	-2.0163855e-08	0.99513626	1.3033549e-10	0	0.131	0
0	-1.7338595e-08	0.99516076	1.3510386e-11	0	0.13199998	0
0	-1.556317e-08	0.995185	-4.7683715e-11	0	0.133	0
0	-1.5979609e-08	0.99520904	2.638499e-10	0	0.13400002	0
0	-1.5860795e-08	0.9952331	-2.368291e-10	0	0.13500002	0
0	-1.1611779e-08	0.99525696	-6.5167746e-11	0	0.13600002	0
0	-1.0916392e-08	0.9952806	-7.78834e-11	0	0.13699998	0
0	-8.1261e-09	0.99530417	6.357829e-11	0	0.138	0
0	-8.134842e-09	0.9953276	4.7683715e-12	0	0.139	0
0	-7.504622e-09	0.99535096	5.2452088e-11	0	0.14	0
0	-7.795095e-09	0.99537396	7.947286e-12	0	0.141	0
0	-5.684296e-09	0.9953971	-1.4623006e-10	0	0.142	0
0	-7.2856743e-09	0.9954198	1.8755594e-10	0	0.143	0
0	-5.4804485e-09	0.9954426	-4.3153764e-10	0	0.144	0
0	-7.036527e-09	0.9954652	-7.0730845e-11	0	0.14499998	0
0	-4.0070214e-09	0.9954877	-2.3523966e-10	0	0.146	0
0	-5.116463e-09	0.9955099	3.814697e-11	0	0.14700001	0
0	-3.644228e-09	0.9955321	3.1312306e-10	0	0.148	0
0	-4.608234e-09	0.99555415	-1.8437704e-10	0	0.149	0
0	-1.7038981e-09	0.995576	4.2915345e-11	0	0.15	0
0	-7.879734e-10	0.9955979	-1.9868215e-11	0	0.15100001	0
0	-3.900528e-09	0.9956196	-5.7220458e-11	0	0.152	0
0	-3.4848848e-09	0.99564093	1.5894572e-12	0	0.15299998	0
0	-1.9947688e-09	0.9956625	-1.748403e-11	0	0.154	0
0	-1.4321009e-09	0.9956837	-3.083547e-10	0	0.15500002	0
0	-1.5234948e-09	0.99570477	-7.152557e-12	0	0.15600002	0
0	-1.484553e-09	0.9957258	-2.2967657e-10	0	0.157	0
0	-1.2787184e-09	0.9957467	1.2238821e-10	0	0.158	0
0	-1.4766057e-09	0.9957674	2.8133393e-10	0	0.159	0
0	-8.138021e-10	0.99578804	5.086263e-11	0	0.16	0
0	1.0808309e-10	0.99580854	-6.993612e-11	0	0.16099998	0
0	1.9709269e-10	0.99582887	-3.6239625e-10	0	0.162	0
0	-1.7801921e-09	0.9958492	-4.7683715e-11	0	0.16300002	0
0	-1.9470852e-09	0.9958694	-1.9073486e-11	0	0.16400002	0
0	-1.5497208e-09	0.99588925	3.9577483e-10	0	0.165	0
0	-1.5580655e-09	0.9959093	-1.1126201e-10	0	0.166	0
0	-1.6184648e-09	0.99592894	4.2915345e-11	0	0.167	0
0	-2.1243096e-09	0.9959487	6.357829e-11	0	0.168	0
0	-9.349982e-10	0.9959682	-1.557668e-10	0	0.169	0
0	7.1525574e-10	0.9959876	-2.4636587e-10	0	0.16999999	0
0	-1.5974044e-10	0.99600685	1.2238821e-10	0	0.171	0
0	-1.2580553e-09	0.99602604	-2.6702882e-10	0	0.172	0
0	-3.4888586e-10	0.9960451	-1.14440915e-10	0	0.173	0
0	-1.8850963e-09	0.99606407	1.0410944e-10	0	0.17399998	0
0	-6.6280365e-10	0.9960829	-2.9087066e-10	0	0.175	0
0	-1.4038881e-09	0.9961017	-1.02519986e-10	0	0.17600001	0
0	3.449122e-10	0.9961202	-5.086263e-11	0	0.177	0
0	-2.611081e-09	0.99613875	-1.2079875e-10	0	0.17799999	0
0	-8.4877017e-10	0.9961571	1.8119813e-10	0	0.179	0
0	-6.087621e-10	0.9961753	-2.5749206e-10	0	0.18	0
0	-1.3033549e-09	0.9961934	1.1603037e-10	0	0.18099998	0
0	-9.830793e-10	0.9962116	6.834666e-11	0	0.18199998	0
0	-4.9908955e-10	0.99622947	2.7179717e-10	0	0.183	0
0	-1.2230873e-09	0.9962473	-2.2252401e-11	0	0.184	0
0	-1.8541019e-09	0.996265	6.3578288e-12	0	0.18500002	0
0	4.3789547e-10	0.9962827	8.742015e-11	0	0.18599999	0
0	-5.3405763e-10	0.9963002	-1.9073486e-10	0	0.187	0
0	3.5365422e-10	0.9963176	8.2651774e-11	0	0.188	0
0	-4.4902165e-11	0.9963349	1.748403e-11	0	0.18900001	0
0	-2.4000804e-10	0.9963521	2.4557115e-10	0	0.18999998	0
0	-2.1155675e-09	0.9963692	-8.2651774e-11	0	0.191	0
0	-1.3033549e-10	0.99638623	-6.2783556e-11	0	0.192	0
0	-9.504953e-10	0.9964031	1.3033549e-10	0	0.19300002	0
0	6.175041e-10	0.9964199	2.3206075e-10	0	0.19400002	0
0	-5.229314e-10	0.9964365	2.861023e-10	0	0.195	0
0	-1.0077159e-09	0.9964531	2.0980835e-10	0	0.196	0
0	-1.1698404e-09	0.99646956	-4.2915345e-11	0	0.19700001	0
0	-7.0969264e-10	0.99648607	1.6450882e-10	0	0.19799997	0
0	-3.083547e-10	0.9965023	3.6001205e-10	0	0.19899999	0
0	0	0.99651855	-2.4875005e-10	0	0.2	0
0	-1.0387102e-09	0.9965346	-1.3669332e-10	0	0.20100002	0
0	-4.5259793e-10	0.9965505	-1.4940897e-10	0	0.20200002	0
0	-7.8757606e-10	0.99656653	1.8596649e-10	0	0.203	0
0	-1.6701222e-09	0.99658227	-3.9895376e-10	0	0.204	0
0	5.642573e-10	0.996598	1.1285146e-10	0	0.20500001	0
0	-1.31766e-09	0.9966136	6.6757204e-11	0	0.20599997	0
0	-3.7193298e-10	0.9966292	1.8278758e-10	0	0.20699999	0
0	-9.2347463e-10	0.99664456	-2.5908153e-10	0	0.208	0
0	-1.2894471e-09	0.9966599	-1.5894572e-12	0	0.209	0
0	-1.14838285e-10	0.99667513	1.0649363e-10	0	0.21	0
0	-1.2060006e-09	0.99669033	-8.583069e-11	0	0.21099998	0
0	-6.11941e-10	0.9967053	3.2583872e-10	0	0.21199998	0
0	7.168452e-10	0.9967203	4.7683715e-12	0	0.21300001	0
0	-1.3724963e-09	0.9967352	-3.1868616e-10	0	0.21400002	0
0	5.8968863e-10	0.99675	2.972285e-10	0	0.21499997	0
0	-3.274282e-10	0.99676466	-1.1126201e-10	0	0.216	0
0	4.0213266e-10	0.99677926	6.1194105e-11	0	0.217	0
0	-1.2155373e-09	0.99679387	-1.3113022e-10	0	0.218	0
0	2.292792e-10	0.99680823	-1.0649363e-10	0	0.21900003	0
0	-1.3097128e-09	0.9968226	3.1312306e-10	0	0.22	0
0	-6.3339867e-10	0.9968369	1.7642975e-10	0	0.221	0
0	-3.3775965e-10	0.996851	-2.2252401e-11	0	0.222	0
0	-1.0546048e-09	0.9968652	2.2729238e-10	0	0.22299998	0
0	-2.5391578e-10	0.99687916	1.3033549e-10	0	0.224	0
0	-1.7404557e-09	0.99689305	-4.0213266e-10	0	0.225	0
0	9.2347463e-10	0.996907	-6.834666e-11	0	0.226	0
0	-9.604295e-10	0.9969207	-2.861023e-10	0	0.22700003	0
0	-5.420049e-10	0.9969343	-9.218852e-11	0	0.228	0
0	5.380313e-10	0.99694794	2.1298727e-10	0	0.229	0
0	-6.755193e-11	0.9969615	-8.026759e-11	0	0.23	0
0	-9.1393787e-10	0.996975	-2.2172927e-10	0	0.23099998	0
0	-8.5512797e-10	0.99698836	-3.9577483e-10	0	0.232	0
0	-1.8715858e-09	0.99700147	-2.7020773e-11	0	0.233	0
0	-2.0345052e-09	0.9970148	-4.4504803e-11	0	0.234	0
0	-1.5687942e-09	0.99702793	-1.9073486e-11	0	0.235	0
0	-1.4170011e-09	0.9970408	7.152558e-11	0	0.23600003	0
0	-1.3148784e-09	0.997054	1.4940897e-10	0	0.237	0
0	-1.5846888e-09	0.9970668	-1.3271968e-10	0	0.238	0
0	-6.3339867e-10	0.9970796	1.9391377e-10	0	0.23899998	0
0	-3.9656958e-10	0.9970923	-6.3578288e-12	0	0.23999998	0
0	1.3629595e-09	0.997105	7.629394e-11	0	0.241	0
0	-4.251798e-10	0.9971176	-2.360344e-10	0	0.242	0
0	-6.7075095e-10	0.9971301	-1.08877816e-10	0	0.243	0
0	-1.9073486e-10	0.9971425	2.384186e-10	0	0.24400003	0
0	-7.1763995e-10	0.9971548	-1.2715658e-10	0	0.245	0
0	-2.5912126e-09	0.9971671	2.6861827e-10	0	0.246	0
0	-2.3587545e-09	0.9971794	1.4384588e-10	0	0.247	0
0	-6.425381e-10	0.99719155	2.6702882e-10	0	0.24799998	0
0	-6.5167743e-10	0.9972035	1.2079875e-10	0	0.249	0
0	-5.356471e-10	0.9972156	6.834666e-11	0	0.25	0
0	-4.386902e-10	0.9972275	1.748403e-10	0	0.251	0
0	-3.8464865e-10	0.9972393	-1.4305115e-10	0	0.25200003	0
0	-1.0987122e-09	0.99725103	-5.086263e-11	0	0.253	0
0	-1.2715658e-10	0.9972629	3.194809e-10	0	0.254	0
0	-5.149841e-10	0.99727446	9.2983246e-11	0	0.255	0
0	-7.4148176e-10	0.99728614	7.390976e-11	0	0.256	0
0	4.287561e-10	0.9972976	3.0438105e-10	0	0.257	0
0	-1.5115738e-09	0.9973091	1.748403e-11	0	0.258	0
0	-6.556511e-10	0.9973203	-1.2556711e-10	0	0.259	0
0	-4.561742e-10	0.9973317	-1.1126201e-11	0	0.26	0
0	8.591016e-10	0.997343	1.4384588e-10	0	0.26100004	0
0	-2.2411346e-10	0.9973541	-2.5749206e-10	0	0.262	0
0	2.6106833e-10	0.99736524	2.0186107e-10	0	0.263	0
0	-8.2969664e-10	0.99737626	1.6689301e-11	0	0.26399997	0
0	1.1694431e-09	0.9973873	-1.7642975e-10	0	0.265	0
0	-1.2397766e-10	0.99739814	-1.9470851e-10	0	0.266	0
0	1.2040138e-10	0.99740905	-1.14440915e-10	0	0.267	0
0	-1.5672048e-09	0.9974199	1.5497208e-10	0	0.26800004	0
0	-1.8743673e-09	0.9974305	-1.6132991e-10	0	0.26900002	0
0	-1.5664101e-09	0.99744123	-1.5815099e-10	0	0.27000004	0
0	-2.8769176e-10	0.9974519	-2.1537144e-10	0	0.271	0
0	-1.5147527e-09	0.9974625	4.196167e-10	0	0.27200004	0
0	-1.4209748e-09	0.99747294	5.3246817e-11	0	0.27299997	0
0	-6.96977e-10	0.9974833	1.7801921e-10	0	0.27399996	0
0	-4.5220058e-10	0.99749374	5.4041546e-11	0	0.275	0
0	-1.3780593e-09	0.9975039	-8.2651774e-11	0	0.276	0
0	-4.5100848e-10	0.99751425	-2.8530756e-10	0	0.27700004	0
0	-1.188914e-09	0.9975245	1.5894572e-11	0	0.278	0
0	-1.5473366e-09	0.99753445	2.2093455e-10	0	0.279	0
0	-5.817413e-10	0.9975446	-2.7259192e-10	0	0.28	0
0	4.8955284e-10	0.9975546	-2.4398167e-10	0	0.281	0
0	-1.2667973e-09	0.99756455	-7.629394e-11	0	0.282	0
0	-1.540184e-09	0.9975744	2.7974448e-10	0	0.283	0
0	-8.8413554e-10	0.9975843	-1.5894572e-12	0	0.284	0
0	-9.36985e-10	0.99759406	8.34465e-11	0	0.28500003	0
0	-9.0996427e-10	0.9976038	-2.1457672e-10	0	0.286	0
0	5.65052e-10	0.9976133	-2.4954477e-10	0	0.287	0
0	-2.9881794e-10	0.997623	4.0451686e-10	0	0.288	0
0	3.4888586e-10	0.9976326	-3.6080677e-10	0	0.289	0
0	5.642573e-11	0.9976421	1.168251e-10	0	0.28999996	0
0	-1.1630853e-09	0.9976516	-1.3669332e-10	0	0.291	0
0	-9.059906e-10	0.9976608	1.001358e-10	0	0.292	0
0	-1.146396e-09	0.9976703	-2.2252401e-10	0	0.293	0
0	-5.1339466e-10	0.9976795	-1.6053518e-10	0	0.29400003	0
0	-2.026558e-10	0.9976888	4.4504803e-11	0	0.295	0
0	-1.0808309e-10	0.9976979	6.3578288e-12	0	0.296	0
0	3.3020972e-10	0.99770695	2.2888183e-10	0	0.29699996	0
0	-7.486343e-10	0.99771607	2.7020773e-11	0	0.298	0
0	-5.5710475e-10	0.997725	8.106232e-11	0	0.29899997	0
0	-1.1444092e-09	0.99773407	-2.6067098e-10	0	0.3	0
0	-1.133283e-09	0.9977429	8.2651774e-11	0	0.301	0
0	8.606911e-10	0.9977518	-9.059906e-11	0	0.30200002	0
0	3.5762787e-10	0.99776065	1.2397766e-10	0	0.30300003	0
0	-2.3762384e-10	0.99776936	3.0994415e-11	0	0.304	0
0	1.08877816e-10	0.9977781	1.1920929e-11	0	0.305	0
0	-1.3065338e-09	0.99778664	-3.2583872e-10	0	0.30599996	0
0	-8.980433e-10	0.9977954	6.3578288e-12	0	0.307	0
0	-8.3446505e-10	0.997804	-1.4305114e-11	0	0.308	0
0	8.781751e-11	0.9978125	5.4041546e-11	0	0.309	0
0	4.3551127e-10	0.9978209	-2.8610229e-11	0	0.31000003	0
0	3.4252803e-10	0.9978294	7.7088676e-11	0	0.311	0
0	1.5020371e-10	0.9978377	2.2411346e-10	0	0.31200004	0
0	6.3180926e-11	0.99784607	1.446406e-10	0	0.31299996	0
0	2.2649765e-10	0.99785435	2.861023e-10	0	0.314	0
0	-1.1092425e-09	0.9978626	-9.695689e-11	0	0.31499997	0
0	2.3166338e-10	0.99787074	1.1841456e-10	0	0.316	0
0	-5.841255e-10	0.99787897	1.7642975e-10	0	0.317	0
0	4.83195e-10	0.99788696	1.5417735e-10	0	0.318	0
0	-8.447965e-10	0.997895	-1.5258789e-10	0	0.31900004	0
0	-1.9987424e-10	0.9979031	3.7511189e-10	0	0.32	0
0	-2.2013982e-09	0.99791104	9.536743e-11	0	0.321	0
0	-6.8028766e-10	0.99791896	-1.9550324e-10	0	0.32199997	0
0	-2.1616618e-10	0.9979269	-4.7683715e-12	0	0.32299998	0
0	2.1219254e-10	0.9979348	-4.6253204e-10	0	0.324	0
0	-2.447764e-09	0.9979425	5.3246817e-11	0	0.325	0
0	1.7682711e-10	0.9979502	7.947286e-11	0	0.32600003	0
0	3.0040742e-10	0.99795794	2.8610229e-11	0	0.327	0
0	-4.5379003e-10	0.99796563	7.947286e-12	0	0.32800004	0
0	1.5735627e-10	0.99797314	-1.6609827e-10	0	0.329	0
0	5.5631003e-11	0.99798083	-1.14440915e-10	0	0.33	0
0	1.09771886e-10	0.99798834	-1.6053518e-10	0	0.33099997	0
0	-7.3194506e-10	0.99799585	-1.7325083e-10	0	0.332	0
0	-7.947286e-10	0.9980033	-2.1060308e-10	0	0.333	0
0	2.1457672e-10	0.9980105	-1.7404557e-10	0	0.334	0
0	-7.6770784e-10	0.9980179	3.3378602e-11	0	0.33500004	0
0	-1.0474522e-09	0.9980254	5.4041546e-11	0	0.336	0
0	1.3033549e-10	0.9980325	-7.152557e-12	0	0.337	0
0	1.168251e-10	0.9980398	1.0331472e-10	0	0.338	0
0	-6.5286954e-10	0.9980469	-1.6848246e-10	0	0.339	0
0	-1.0728836e-09	0.99805415	3.0199687e-10	0	0.33999997	0
0	1.6593933e-09	0.99806124	3.0199687e-11	0	0.341	0
0	-1.915296e-09	0.99806833	-1.6609827e-10	0	0.342	0
0	-7.1763995e-10	0.9980754	-9.8546345e-11	0	0.34300002	0
0	-1.0466575e-09	0.9980824	-3.5603842e-10	0	0.344	0
0	-1.0657311e-09	0.9980894	1.0649363e-10	0	0.34500003	0
0	-5.4597854e-10	0.99809647	6.993612e-11	0	0.346	0
0	4.283587e-10	0.99810314	-3.1789144e-11	0	0.347	0
0	1.2119611e-10	0.99811023	7.947286e-11	0	0.34799996	0
0	-9.568533e-10	0.99811685	-2.4795532e-10	0	0.349	0
0	-1.5894572e-11	0.99812365	-7.311503e-11	0	0.35	0
0	-1.9836426e-09	0.99813044	-3.1789144e-12	0	0.351	0
0	-1.0828177e-09	0.99813706	3.1789144e-11	0	0.35200003	0
0	-8.622805e-10	0.99814373	9.616216e-11	0	0.35299996	0
0	2.7020773e-11	0.9981504	-1.2079875e-10	0	0.354	0
0	2.4676322e-10	0.99815696	-1.27156575e-11	0	0.35499996	0
0	-8.2532564e-10	0.9981635	-2.5431315e-10	0	0.35599998	0
0	-3.67562e-11	0.9981702	-3.2583873e-11	0	0.35699996	0
0	-1.0458628e-09	0.9981767	2.4318694e-10	0	0.358	0
0	-4.680951e-10	0.998183	3.274282e-10	0	0.359	0
0	-2.2848447e-10	0.99818957	-2.9404958e-11	0	0.36	0
0	-1.31766e-09	0.9981958	1.3828277e-10	0	0.36100003	0
0	6.71943e-10	0.99820226	-3.0358632e-10	0	0.36199996	0
0	-1.275142e-09	0.9982085	2.4636587e-10	0	0.363	0
0	-6.596247e-11	0.9982148	-1.5894572e-11	0	0.36399996	0
0	-4.529953e-11	0.9982213	-1.5417735e-10	0	0.365	0
0	-9.624164e-10	0.9982273	-9.8546345e-11	0	0.366	0
0	6.8823497e-10	0.99823356	5.2452088e-11	0	0.367	0
0	-6.556511e-10	0.9982398	-2.5431315e-11	0	0.368	0
0	-1.0768573e-09	0.99824584	-6.039937e-11	0	0.369	0
0	-9.731451e-10	0.99825186	-1.1285146e-10	0	0.37000003	0
0	-1.4487902e-09	0.998258	-1.9868215e-10	0	0.37099996	0
0	-7.7724455e-10	0.9982641	-2.861023e-10	0	0.37199998	0
0	-6.930033e-10	0.99827	-1.04904176e-10	0	0.37299997	0
0	1.0649363e-10	0.99827605	9.377797e-11	0	0.374	0
0	-1.3577938e-09	0.9982819	1.2715658e-10	0	0.375	0
0	-1.0859966e-09	0.99828774	1.9311905e-10	0	0.376	0
0	-2.0106633e-10	0.99829376	-1.748403e-11	0	0.37700003	0
0	4.585584e-10	0.9982995	-2.0662944e-10	0	0.37800002	0
0	-2.7338665e-10	0.99830544	-4.2915345e-11	0	0.37900004	0
0	7.3035555e-10	0.99831104	5.4041546e-11	0	0.37999997	0
0	6.135305e-10	0.9983169	-2.6543936e-10	0	0.38099998	0
0	-1.3343493e-09	0.9983225	-9.059906e-11	0	0.382	0
0	-1.3669332e-09	0.9983283	-2.972285e-10	0	0.383	0
0	-2.65042e-10	0.99833393	-3.083547e-10	0	0.384	0
0	-1.3462702e-09	0.9983396	2.1457672e-10	0	0.385	0
0	-9.504953e-10	0.9983452	-1.7166138e-10	0	0.38600004	0
0	-1.5894572e-11	0.99835074	3.6478043e-10	0	0.38699993	0
0	-1.1441111e-09	0.9983562	-1.8278757e-11	0	0.38800004	0
0	-1.1308988e-09	0.99836165	-3.6080677e-10	0	0.38899997	0
0	-2.2649765e-10	0.9983673	-3.274282e-10	0	0.39	0
0	-3.973643e-12	0.99837273	2.5987626e-10	0	0.391	0
0	-1.0108948e-09	0.9983781	-7.947286e-11	0	0.392	0
0	-1.2222926e-09	0.9983835	1.8278757e-11	0	0.39300004	0
0	-1.1793773e-09	0.99838877	1.1761983e-10	0	0.39400002	0
0	-1.1499722e-09	0.99839425	1.5735627e-10	0	0.39500004	0
0	-9.671847e-10	0.99839956	1.3748805e-10	0	0.39599994	0
0	-3.4292538e-10	0.9984049	1.4305115e-10	0	0.39700004	0
0	-3.2345454e-10	0.9984101	1.5099844e-10	0	0.39799997	0
0	1.001358e-09	0.99841523	-1.5735627e-10	0	0.39899996	0
0	-8.3446505e-10	0.9984206	-1.1761983e-10	0	0.4	0
0	1.1098384e-09	0.9984154	-1.390775e-10	0	0.39899996	0
0	-4.7842663e-10	0.9984101	1.5894572e-12	0	0.39799997	0
0	-8.749962e-10	0.9984049	-2.7894972e-10	0	0.39700004	0
0	-6.0160954e-10	0.99839956	2.0186107e-10	0	0.39599994	0
0	-6.4849853e-10	0.99839425	2.3523966e-10	0	0.39500004	0
0	-7.557869e-10	0.99838895	-4.1325887e-11	0	0.39400002	0
0	-9.910266e-10	0.9983835	4.4107437e-10	0	0.39300004	0
0	-8.7896984e-10	0.9983781	7.947286e-12	0	0.392	0
0	2.2252401e-11	0.99837273	2.0345052e-10	0	0.391	0
0	-5.2134197e-10	0.9983673	1.3033549e-10	0	0.39	0
0	-1.1475881e-09	0.99836165	-1.0450681e-10	0	0.38899997	0
0	-1.1873246e-09	0.9983562	1.66893e-10	0	0.38800004	0
0	-9.28243e-10	0.99835074	-9.218852e-11	0	0.38699993	0
0	-1.3415019e-09	0.9983452	-1.748403e-11	0	0.38600004	0
0	-1.1928877e-09	0.9983396	3.2663344e-10	0	0.385	0
0	-3.2703082e-10	0.99833393	-1.5894572e-10	0	0.384	0
0	-8.559227e-10	0.9983283	-3.0676525e-10	0	0.383	0
0	-4.2120615e-10	0.9983226	-1.4781952e-10	0	0.382	0
0	6.985664e-10	0.9983169	4.609426e-11	0	0.38099998	0
0	1.5258789e-10	0.99831104	-4.4504803e-11	0	0.37999997	0
0	1.8199285e-10	0.99830544	1.001358e-10	0	0.37900004	0
0	3.1073888e-10	0.9982996	-9.377797e-11	0	0.37800002	0
0	-5.09421e-10	0.99829376	1.2079875e-10	0	0.37700003	0
0	-5.706151e-10	0.99828774	2.5113422e-10	0	0.376	0
0	-1.2421608e-09	0.9982819	2.384186e-10	0	0.375	0
0	3.695488e-10	0.99827605	-5.3246817e-11	0	0.374	0
0	-6.230672e-10	0.99827	9.536743e-11	0	0.37299997	0
0	-1.1920929e-09	0.99826396	4.053116e-11	0	0.37199998	0
0	-1.039505e-09	0.998258	-5.276998e-10	0	0.37099996	0
0	-7.645289e-10	0.99825186	2.4318694e-10	0	0.37000003	0
0	-8.368492e-10	0.99824584	8.503596e-11	0	0.369	0
0	-4.1325887e-10	0.9982398	-1.056989e-10	0	0.368	0
0	3.528595e-10	0.99823356	-9.695689e-11	0	0.367	0
0	-6.922086e-10	0.9982273	2.8610229e-11	0	0.366	0
0	-2.7259192e-10	0.9982213	7.629394e-11	0	0.365	0
0	5.6028365e-10	0.998215	-1.1603037e-10	0	0.36399996	0
0	-9.19501e-10	0.9982085	3.6875408e-10	0	0.363	0
0	1.2548764e-09	0.99820226	-4.2200088e-10	0	0.36199996	0
0	-3.1232833e-10	0.99819607	-2.5113422e-10	0	0.36100003	0
0	-1.3351441e-10	0.99818957	2.7338665e-10	0	0.36	0
0	2.5908153e-10	0.99818313	3.306071e-10	0	0.359	0
0	-1.0085106e-09	0.9981767	7.78834e-11	0	0.358	0
0	-9.0281166e-10	0.9981702	-1.0331472e-10	0	0.35699996	0
0	-1.1738142e-09	0.99816364	-4.053116e-10	0	0.35599998	0
0	3.0120215e-10	0.9981571	3.194809e-10	0	0.35499996	0
0	5.968412e-10	0.9981505	1.14440915e-10	0	0.354	0
0	-2.8530756e-10	0.99814373	-1.8278758e-10	0	0.35299996	0
0	-7.132689e-10	0.99813706	-4.1325887e-11	0	0.35200003	0
0	-1.4432271e-09	0.99813044	-3.1789144e-12	0	0.351	0
0	1.3510386e-10	0.99812365	-1.446406e-10	0	0.35	0
0	-1.0108948e-09	0.99811685	-1.9073486e-10	0	0.349	0
0	-3.7352243e-11	0.99811023	-2.9961267e-10	0	0.34799996	0
0	4.4981638e-10	0.9981033	-2.527237e-10	0	0.347	0
0	-1.3430913e-10	0.99809635	1.8119813e-10	0	0.346	0
0	-1.275142e-09	0.9980894	1.27156575e-11	0	0.34500003	0
0	-1.5703837e-09	0.9980825	-3.0676525e-10	0	0.344	0
0	-4.36306e-10	0.9980754	-1.5815099e-10	0	0.34300002	0
0	-5.9922534e-10	0.99806833	3.1312306e-10	0	0.342	0
0	1.4774004e-09	0.99806124	1.168251e-10	0	0.341	0
0	-4.3670337e-10	0.99805415	3.0477842e-10	0	0.33999997	0
0	-1.1086464e-09	0.99804705	-1.3669332e-10	0	0.339	0
0	7.14461e-10	0.9980398	6.357829e-11	0	0.338	0
0	3.496806e-10	0.9980327	-2.2252401e-10	0	0.337	0
0	-6.389618e-10	0.9980254	-7.7088676e-11	0	0.336	0
0	-9.385744e-10	0.9980179	4.1007994e-10	0	0.33500004	0
0	7.088979e-10	0.99801064	1.4146169e-10	0	0.334	0
0	-3.973643e-11	0.99800324	-2.861023e-10	0	0.333	0
0	-3.9458276e-10	0.9979956	-1.8596649e-10	0	0.332	0
0	7.942319e-10	0.99798834	-1.5815099e-10	0	0.33099997	0
0	7.843971e-10	0.99798083	-5.086263e-11	0	0.33	0
0	-1.817147e-09	0.99797314	3.0994415e-11	0	0.329	0
0	-1.3343493e-09	0.99796563	1.6053518e-10	0	0.32800004	0
0	1.235803e-10	0.99795794	-4.9273172e-11	0	0.327	0
0	5.165736e-11	0.9979502	-1.168251e-10	0	0.32600003	0
0	-1.7444293e-09	0.9979425	2.559026e-10	0	0.325	0
0	-1.6093255e-10	0.9979348	-1.7007191e-10	0	0.324	0
0	-5.412102e-10	0.9979269	-2.5351843e-10	0	0.32299998	0
0	4.8160553e-10	0.99791896	-1.3351441e-10	0	0.32199997	0
0	-2.2772948e-09	0.99791104	-1.3987224e-10	0	0.321	0
0	-1.4384588e-10	0.9979031	2.6226044e-11	0	0.32	0
0	-7.3273976e-10	0.9978951	-1.056989e-10	0	0.31900004	0
0	-2.6226044e-11	0.9978871	5.2452088e-11	0	0.318	0
0	-2.7020773e-11	0.99787897	1.8278758e-10	0	0.317	0
0	4.4027965e-10	0.99787086	2.113978e-10	0	0.316	0
0	-2.6226044e-11	0.9978626	8.106232e-11	0	0.31499997	0
0	-7.3512396e-10	0.99785435	1.9709269e-10	0	0.314	0
0	5.6028365e-10	0.99784607	3.3775965e-10	0	0.31299996	0
0	-6.655852e-10	0.99783784	-9.775162e-11	0	0.31200004	0
0	-4.74453e-10	0.9978294	-1.0172526e-10	0	0.311	0
0	-4.800161e-10	0.9978209	-5.8809915e-11	0	0.31000003	0
0	-1.5417735e-10	0.9978125	-1.6689301e-11	0	0.309	0
0	-5.6902566e-10	0.997804	-8.821487e-11	0	0.308	0
0	-4.4027965e-10	0.9977954	-2.8689703e-10	0	0.307	0
0	-4.3710072e-10	0.99778676	1.2477239e-10	0	0.30599996	0
0	-9.679795e-10	0.99777824	-3.6557515e-10	0	0.305	0
0	8.7102253e-10	0.99776936	-2.614657e-10	0	0.304	0
0	5.229314e-10	0.9977607	4.704793e-10	0	0.30300003	0
0	-3.393491e-10	0.9977519	-1.5735627e-10	0	0.30200002	0
0	-6.556511e-10	0.997743	-1.9073486e-11	0	0.301	0
0	-1.4456113e-09	0.9977342	1.2238821e-10	0	0.3	0
0	-1.2969971e-09	0.997725	-3.6557514e-11	0	0.29899997	0
0	-1.2334188e-09	0.99771607	1.1126201e-10	0	0.298	0
0	5.273024e-10	0.99770707	3.115336e-10	0	0.29699996	0
0	3.6438305e-10	0.9976979	2.0821889e-10	0	0.296	0
0	5.507469e-10	0.9976888	2.940496e-10	0	0.295	0
0	-2.193451e-10	0.9976795	-2.861023e-10	0	0.29400003	0
0	-1.2266635e-09	0.9976703	-1.4146169e-10	0	0.293	0
0	-2.8610229e-11	0.99766093	1.1841456e-10	0	0.292	0
0	-7.474422e-10	0.99765146	1.9868215e-10	0	0.291	0
0	3.8146972e-10	0.9976421	-9.695689e-11	0	0.28999996	0
0	-9.616216e-11	0.9976325	-2.4795532e-10	0	0.289	0
0	-3.5603842e-10	0.9976229	1.446406e-10	0	0.288	0
0	4.8160553e-10	0.99761343	-5.674362e-10	0	0.287	0
0	-4.6253204e-10	0.9976038	1.4940897e-10	0	0.286	0
0	-6.755193e-11	0.99759394	8.2651774e-11	0	0.28500003	0
0	-4.5140583e-10	0.9975843	-1.637141e-10	0	0.284	0
0	-9.059906e-11	0.9975745	2.3523966e-10	0	0.283	0
0	-6.989638e-10	0.99756455	-3.0040742e-10	0	0.282	0
0	4.3710072e-10	0.9975546	2.8133393e-10	0	0.281	0
0	-6.373723e-10	0.9975446	-2.6226044e-10	0	0.28	0
0	-1.0037422e-09	0.99753445	-5.5631003e-11	0	0.279	0
0	-1.689593e-09	0.9975244	-2.2888183e-10	0	0.278	0
0	-3.159046e-10	0.99751425	1.5497208e-10	0	0.27700004	0
0	-8.5830687e-10	0.99750394	-3.1630198e-10	0	0.276	0
0	-6.477038e-10	0.9974936	1.6450882e-10	0	0.275	0
0	-1.2405713e-09	0.9974833	4.609426e-11	0	0.27399996	0
0	-6.330013e-10	0.99747294	3.973643e-11	0	0.27299997	0
0	-1.6363462e-09	0.9974624	2.4795532e-10	0	0.27200004	0
0	-3.973643e-11	0.9974519	-1.001358e-10	0	0.271	0
0	-1.3927619e-09	0.99744123	-2.0424525e-10	0	0.27000004	0
0	-1.1428197e-09	0.9974306	-2.559026e-10	0	0.26900002	0
0	-5.825361e-10	0.9974199	7.23203e-11	0	0.26800004	0
0	1.7881394e-10	0.99740916	9.4572704e-11	0	0.267	0
0	-4.6253204e-10	0.99739826	-2.2967657e-10	0	0.266	0
0	-3.734231e-10	0.9973873	-2.749761e-10	0	0.265	0
0	-9.139379e-11	0.99737626	1.2159347e-10	0	0.26399997	0
0	9.854635e-10	0.9973653	-2.0980835e-10	0	0.263	0
0	-3.639857e-10	0.99735427	2.7577082e-10	0	0.262	0
0	8.9009605e-10	0.997343	-4.4504803e-11	0	0.26100004	0
0	-5.5631e-10	0.9973318	1.8596649e-10	0	0.26	0
0	2.0941099e-10	0.9973204	1.0967255e-10	0	0.259	0
0	-7.557869e-10	0.9973091	-2.0662944e-11	0	0.258	0
0	2.837181e-10	0.9972976	1.470248e-10	0	0.257	0
0	-1.7881394e-10	0.997286	9.059906e-11	0	0.256	0
0	-4.3392182e-10	0.99727446	2.1060308e-10	0	0.255	0
0	-8.7976454e-10	0.99726284	1.2636185e-10	0	0.254	0
0	-4.899502e-10	0.99725115	-2.4636586e-11	0	0.253	0
0	-7.7406564e-10	0.99723935	-7.78834e-11	0	0.25200003	0
0	-1.3510386e-09	0.9972275	1.3033549e-10	0	0.251	0
0	-7.104874e-10	0.9972156	-1.2636185e-10	0	0.25	0
0	-3.6358833e-10	0.99720365	1.3033549e-10	0	0.249	0
0	-3.496806e-10	0.9971914	1.9788741e-10	0	0.24799998	0
0	-2.360344e-10	0.9971794	1.0967255e-10	0	0.247	0
0	-1.3613701e-09	0.9971671	-2.78155e-10	0	0.246	0
0	-8.9446706e-10	0.9971549	-7.311503e-11	0	0.245	0
0	-2.2292138e-10	0.9971425	1.04904176e-10	0	0.24400003	0
0	4.653136e-10	0.9971301	-1.446406e-10	0	0.243	0
0	3.6557514e-11	0.9971176	7.152557e-12	0	0.242	0
0	6.2386196e-10	0.997105	-2.972285e-10	0	0.241	0
0	-6.8823497e-10	0.99709237	7.4704486e-11	0	0.23999998	0
0	-9.2148783e-10	0.9970796	3.1789144e-12	0	0.23899998	0
0	-1.3053417e-09	0.99706686	-2.7815502e-11	0	0.238	0
0	-1.9701323e-09	0.997054	7.947286e-11	0	0.237	0
0	-9.1314317e-10	0.9970409	-1.6530355e-10	0	0.23600003	0
0	-2.3841857e-11	0.99702793	-1.8278758e-10	0	0.235	0