# t (s)	mx ()	my ()	mz ()	B_extx (T)	B_exty (T)	B_extz (T)
0	2.1287373e-12	-6.811959e-11	-6.386212e-12	0	0	0
0	0.00089674187	-1.192093e-10	-1.7029898e-11	0.005	0	0
0	0.001794043	-1.3623919e-10	1.9158636e-11	0.01	0	0
0	0.0026924668	1.0217939e-10	1.4901162e-11	0.014999993	0	0
0	0.0035926148	5.1089695e-11	-4.2574746e-12	0.02	0	0
0	0.0044951364	-1.7029898e-10	-1.7029898e-11	0.024999995	0	0
0	0.0054007694	-6.811959e-11	0	0.029999986	0	0
0	0.0063103703	1.2772423e-10	0	0.03500001	0	0
0	0.007224981	-1.7029898e-11	-4.2574746e-12	0.04	0	0
0	0.00814592	1.7029898e-11	-8.514949e-12	0.045000006	0	0
0	0.009074991	-1.7029898e-11	0	0.04999999	0	0
0	0.010014822	1.5326909e-10	-2.7673586e-11	0.054999992	0	0
0	0.010969744	6.811959e-11	2.1287373e-12	0.059999973	0	0
0	0.011948286	-1.0217939e-10	0	0.06500003	0	0
0	0.012975729	1.0217939e-10	2.9802324e-11	0.07000002	0	0
0	0.018519945	-1.06436866e-10	-2.1287373e-12	0.07500002	0	0
0	0.024334509	2.4267605e-10	1.4235931e-11	0.08	0	0
0	0.026208632	3.7465778e-10	8.514949e-12	0.085000016	0	0
0	0.028154088	3.7465778e-10	2.1287373e-12	0.09000001	0	0
0	0.030214535	-6.599086e-11	-2.7673586e-11	0.09500002	0	0
0	0.032522168	0	-5.4016708e-11	0.09999998	0	0
0	0.035267714	3.4059797e-10	-1.17080555e-11	0.10500001	0	0
0	0.038094368	1.2772423e-10	-4.2574746e-12	0.109999985	0	0
0	0.040658403	2.5544847e-10	2.208565e-11	0.114999995	0	0
0	0.0431475	4.683222e-10	2.0223004e-11	0.119999945	0	0
0	0.04570642	6.471361e-10	-3.938164e-11	0.125	0	0
0	0.048393458	6.3010624e-10	-3.8317273e-11	0.13000005	0	0
0	0.05125799	6.8119593e-10	-1.9158636e-11	0.135	0	0
0	0.054357696	9.877341e-10	-3.7785088e-11	0.14000005	0	0
0	0.057764143	6.7268097e-10	5.2686248e-11	0.145	0	0
0	0.061584786	7.833753e-10	-1.3836793e-11	0.15000004	0	0
0	0.06597906	1.5412058e-09	1.6497715e-11	0.155	0	0
0	0.07121497	2.465078e-09	6.386212e-11	0.16	0	0
0	0.07779628	2.9291425e-09	-1.9158636e-11	0.16499998	0	0
0	0.086869076	2.6651792e-09	5.641154e-11	0.17000003	0	0
0	0.102490254	1.9626958e-09	4.2574746e-12	0.17500001	0	0
0	0.14496076	2.4884939e-09	-4.8960957e-11	0.18000002	0	0
0	0.15137649	1.3442976e-09	4.41713e-11	0.18499996	0	0
0	0.15529107	7.1099826e-10	2.0010131e-10	0.19000004	0	0
0	0.17115828	-2.3416111e-11	-5.508108e-11	0.195	0	0
0	0.17116041	-1.192093e-10	7.876328e-11	0.19999996	0	0
0	0.17116253	5.2154066e-11	-1.4049666e-10	0.20499995	0	0
0	0.17116459	-1.43689765e-11	-1.00050655e-10	0.21000002	0	0
0	0.17116658	5.7475906e-11	-1.596553e-10	0.21500003	0	0
0	0.17116858	2.71414e-11	1.596553e-11	0.21999997	0	0
0	0.17117052	3.4059797e-11	-2.5651284e-10	0.22499995	0	0
0	0.17117244	-5.3218433e-11	-3.7252902e-11	0.22999999	0	0
0	0.17117432	-8.940697e-11	-2.7354274e-10	0.23500003	0	0
0	0.17117615	7.078051e-11	-3.8317273e-11	0.23999989	0	0
0	0.17117797	-7.078051e-11	-7.024833e-11	0.24499992	0	0
0	0.17117974	-7.344144e-11	2.990876e-10	0.25	0	0
0	0.1711815	2.7673586e-11	9.7921914e-11	0.25500008	0	0
0	0.17118321	2.71414e-11	1.9158636e-11	0.2600001	0	0
0	0.17118488	1.0643686e-12	-8.0892015e-11	0.26499993	0	0
0	0.17118655	-1.2772423e-10	-9.047134e-11	0.27	0	0
0	0.17118818	-1.9477947e-10	1.1042825e-10	0.27500007	0	0
0	0.17118981	-8.0892015e-11	-8.514949e-12	0.2800001	0	0
0	0.17119141	-6.226557e-11	-1.4901162e-11	0.28499997	0	0
0	0.17119297	-1.1175871e-11	1.5220472e-10	0.29	0	0
0	0.17119451	-4.0446008e-11	1.5060816e-10	0.29500005	0	0
0	0.17119603	-2.1287373e-10	-8.83426e-11	0.30000007	0	0
0	0.1711975	-9.579318e-12	4.8162682e-11	0.30499998	0	0
0	0.17119898	6.386212e-12	-7.051442e-11	0.31	0	0
0	0.17120042	-6.492649e-11	-2.543841e-10	0.315	0	0
0	0.17120185	-5.800809e-11	1.5114035e-10	0.32	0	0
0	0.17120324	-7.1844884e-11	1.5646219e-10	0.32499993	0	0
0	0.17120463	1.1175871e-11	7.344144e-11	0.32999995	0	0
0	0.171206	-3.9913826e-11	1.2133802e-10	0.335	0	0
0	0.17120738	2.075519e-11	8.781041e-12	0.34000006	0	0
0	0.1712087	3.086669e-11	-3.7252902e-11	0.34499994	0	0
0	0.17120999	-4.2574746e-12	-1.4076275e-10	0.35000002	0	0
0	0.1712087	1.3836793e-11	-3.4059797e-11	0.34499994	0	0
0	0.17120738	-1.4901162e-11	1.0324376e-10	0.34000006	0	0
0	0.171206	-5.3218432e-12	1.4156103e-10	0.335	0	0
0	0.17120464	5.960465e-11	1.09097786e-10	0.32999995	0	0
0	0.17120324	-7.13127e-11	-4.8960957e-11	0.32499993	0	0
0	0.17120185	-1.2453114e-10	7.024833e-11	0.32	0	0
0	0.17120042	8.514949e-12	-1.0962997e-10	0.315	0	0
0	0.17119896	-1.4901162e-11	-1.4395586e-10	0.31	0	0
0	0.1711975	3.193106e-12	2.8737953e-11	0.30499998	0	0
0	0.17119601	-5.800809e-11	-5.7475906e-11	0.30000007	0	0
0	0.17119451	-1.0111502e-11	1.7455647e-10	0.29500005	0	0
0	0.17119297	2.3416111e-11	2.9802324e-11	0.29	0	0
0	0.17119141	-5.055751e-11	-7.237707e-11	0.28499997	0	0
0	0.17118981	-1.0324376e-10	9.5260994e-11	0.2800001	0	0
0	0.17118819	-1.4794724e-10	6.386212e-11	0.27500007	0	0
0	0.17118655	-1.7881394e-10	-2.2032431e-10	0.27	0	0
0	0.17118488	3.086669e-11	-2.2883926e-11	0.26499993	0	0
0	0.1711832	1.2187021e-10	2.7034963e-10	0.2600001	0	0
0	0.1711815	5.42828e-11	1.1069434e-10	0.25500008	0	0
0	0.17117974	1.8892543e-10	1.2080584e-10	0.25	0	0
0	0.17117797	-6.705522e-11	-1.9158636e-11	0.24499992	0	0
0	0.17117617	-3.672072e-11	-1.2985298e-10	0.23999989	0	0
0	0.17117432	-9.3664444e-11	-2.1606683e-10	0.23500003	0	0
0	0.17117244	5.534717e-11	1.0324376e-10	0.22999999	0	0
0	0.17117052	-3.7785088e-11	-3.0973127e-10	0.22499995	0	0
0	0.17116857	1.02711575e-10	1.3677137e-10	0.21999997	0	0
0	0.17116661	2.6609217e-11	-2.0755189e-10	0.21500002	0	0
0	0.17116459	8.14242e-11	2.1287373e-12	0.21000002	0	0
0	0.17116253	8.83426e-11	-1.1069434e-10	0.20499995	0	0
0	0.17116041	-1.4422195e-10	-1.3623919e-10	0.19999996	0	0
0	0.17115828	1.17080555e-11	-9.605927e-11	0.195	0	0
0	0.17115611	-1.2133802e-10	-1.255955e-10	0.19000004	0	0
0	0.17115387	1.0111502e-10	2.884439e-10	0.18499996	0	0
0	0.1711516	-6.9183964e-11	-7.024833e-11	0.18000002	0	0
0	0.17114927	-1.7881394e-10	-3.7731868e-10	0.17500001	0	0
0	0.1711469	-8.621386e-11	-1.5433345e-10	0.17000003	0	0
0	0.1711445	-7.769891e-11	-3.7785088e-11	0.16499998	0	0
0	0.171142	-1.9158636e-11	3.8104397e-10	0.16	0	0
0	0.17113948	-1.6497714e-10	-3.2037498e-10	0.155	0	0
0	0.17113689	6.279775e-11	-2.51191e-10	0.15000004	0	0
0	0.17113425	-2.1287373e-12	1.3091735e-10	0.145	0	0
0	0.17113152	-2.3416111e-11	-2.1074499e-10	0.14000005	0	0
0	0.17112875	-5.3218433e-11	-3.5762787e-10	0.135	0	0
0	0.1711259	1.0643686e-12	3.0440944e-10	0.13000005	0	0
0	0.17112298	6.386212e-12	-1.1601618e-10	0.125	0	0
0	0.17111999	-6.066901e-11	-6.9183964e-11	0.119999945	0	0
0	0.17111693	7.4505804e-11	-6.6523044e-11	0.114999995	0	0
0	0.17111377	-3.0334507e-10	-2.4586916e-10	0.109999985	0	0
0	0.17111054	6.492649e-11	-5.534717e-11	0.10500001	0	0
0	0.17110722	-1.0217939e-10	-1.3730356e-10	0.09999998	0	0
0	0.17110378	-8.514949e-12	-2.71414e-10	0.09500002	0	0
0	0.17110027	-4.246831e-10	-1.5646219e-10	0.09000001	0	0
0	0.17109664	-8.940697e-11	-5.641154e-11	0.085000016	0	0
0	0.17109291	-1.6604151e-10	-9.7921914e-11	0.08	0	0
0	0.17108908	-7.237707e-11	-5.3511134e-10	0.07500002	0	0
0	0.17108509	3.6188535e-11	2.51191e-10	0.07000002	0	0
0	0.17108099	-7.769891e-11	-2.2351741e-10	0.06500003	0	0
0	0.17107679	-2.9802324e-11	2.9695885e-10	0.059999973	0	0
0	0.17107241	-8.302076e-11	-1.1282308e-10	0.054999992	0	0
0	0.1710679	7.13127e-11	8.0892015e-11	0.04999999	0	0
0	0.1710632	4.789659e-11	3.299543e-11	0.045000006	0	0
0	0.17105833	-1.4901162e-11	3.022807e-10	0.04	0	0
0	0.17105329	-1.7242772e-10	-1.7455647e-10	0.03500001	0	0
0	0.17104806	-2.1287373e-10	2.3416111e-11	0.029999986	0	0
0	0.1710426	-1.085656e-10	4.0871756e-10	0.024999995	0	0
0	0.17103693	-1.766852e-10	-2.1287373e-11	0.02	0	0
0	0.17103101	-1.2027365e-10	5.534717e-11	0.014999993	0	0
0	0.17102483	-1.1601618e-10	3.4911293e-10	0.01	0	0
0	0.17101836	-1.1388745e-10	2.7460711e-10	0.005	0	0
0	0.17101161	-8.302076e-11	-1.4688288e-10	-2.654127e-16	0	0
0	0.1710045	-3.193106e-11	-2.8737953e-11	-0.005	0	0
0	0.17099705	-3.5124164e-11	-2.1500247e-10	-0.01	0	0
0	0.17098917	4.8960957e-11	-1.9158636e-10	-0.014999993	0	0
0	0.17098089	-1.1388745e-10	0	-0.02	0	0
0	0.17097211	1.1495181e-10	-3.0440944e-10	-0.024999995	0	0
0	0.17096278	4.8960957e-11	1.8094268e-10	-0.029999986	0	0
0	0.17095286	-8.514949e-12	2.1287373e-11	-0.03500001	0	0
0	0.17094226	-3.193106e-12	-2.0276222e-10	-0.04	0	0
0	0.17093086	-1.3623919e-10	4.4703484e-11	-0.045000006	0	0
0	0.1709186	1.8094268e-10	-2.1074499e-10	-0.04999999	0	0
0	0.1709053	-2.8737953e-11	1.8945762e-10	-0.054999992	0	0
0	0.17089078	-3.8317273e-11	2.7673586e-11	-0.059999973	0	0
0	0.1708748	-6.066901e-11	2.171312e-10	-0.06500003	0	0
0	0.17085704	-1.2772423e-10	-1.4049666e-10	-0.07000002	0	0
0	0.17083699	2.6609217e-11	-1.7242772e-10	-0.07500002	0	0
0	0.17081389	-1.937151e-10	-1.6604151e-10	-0.08	0	0
0	0.17078647	-2.30968e-10	8.727823e-11	-0.085000016	0	0
0	0.17075202	-1.5539782e-10	1.0962997e-10	-0.09000001	0	0
0	0.17070198	-2.7780023e-10	9.15357e-11	-0.09500002	0	0
0	-0.059036035	0.07177346	0.00023352403	-0.09999998	0	0
0	-0.062168203	0.070814386	0.00022929008	-0.10500001	0	0
0	-0.06519256	0.06993099	0.00022476618	-0.109999985	0	0
0	-0.06807577	0.06912911	0.00022096814	-0.114999995	0	0
0	-0.07082256	0.06827662	0.00022104375	-0.119999945	0	0
0	-0.07365076	0.067327134	0.00021571587	-0.125	0	0
0	-0.0763814	0.0662375	0.00021382257	-0.13000005	0	0
0	-0.07931594	0.06456647	0.00021819049	-0.135	0	0
0	-0.054358844	2.681613e-07	3.5124164e-11	-0.14000005	0	0
0	-0.05776433	-9.877341e-10	-6.811959e-11	-0.145	0	0
0	-0.061584983	-9.451594e-10	5.1089695e-11	-0.15000004	0	0
0	-0.065979026	-1.2261527e-09	-7.13127e-11	-0.155	0	0
0	-0.07121524	-2.2820064e-09	9.579318e-12	-0.16	0	0
0	-0.07779648	-2.9291425e-09	-1.7029898e-11	-0.16499998	0	0
0	-0.0868689	-2.788646e-09	-3.8317273e-11	-0.17000003	0	0
0	-0.102489494	-2.0393303e-09	-3.8317273e-11	-0.17500001	0	0
0	-0.1449607	-2.520425e-09	2.0595534e-10	-0.18000002	0	0
0	-0.15137653	-1.3602631e-09	-8.83426e-11	-0.18499996	0	0
0	-0.15529104	-3.704003e-10	2.4586916e-10	-0.19000004	0	0
0	-0.17115828	-2.2883926e-11	8.727823e-11	-0.195	0	0
0	-0.17116041	1.4901161e-10	-7.13127e-11	-0.19999996	0	0
0	-0.17116253	3.8317273e-11	-3.193106e-12	-0.20499995	0	0
0	-0.17116457	-1.2240239e-11	-5.960465e-11	-0.21000002	0	0
0	-0.17116661	-3.0334506e-11	1.0750124e-10	-0.21500002	0	0
0	-0.17116857	-6.43943e-11	-1.937151e-10	-0.21999997	0	0
0	-0.17117052	-2.2883926e-11	1.1282308e-10	-0.22499995	0	0
0	-0.17117244	3.193106e-11	6.332994e-11	-0.22999999	0	0
0	-0.1711743	1.0750124e-10	3.2463243e-10	-0.23500003	0	0
0	-0.17117615	-8.0892015e-11	-3.8317273e-11	-0.23999989	0	0
0	-0.17117797	5.5879353e-11	6.811959e-11	-0.24499992	0	0
0	-0.17117974	5.907246e-11	-3.0334507e-10	-0.25	0	0
0	-0.17118149	-9.579318e-12	-1.5220472e-10	-0.25500008	0	0
0	-0.1711832	-3.4059797e-11	-5.534717e-11	-0.2600001	0	0
0	-0.17118488	1.8626451e-11	5.162188e-11	-0.26499993	0	0
0	-0.17118655	2.0489097e-10	-6.173338e-11	-0.27	0	0
0	-0.17118819	1.8626452e-10	-1.0484031e-10	-0.27500007	0	0
0	-0.17118981	1.1601618e-10	-9.047134e-11	-0.2800001	0	0
0	-0.17119141	1.255955e-10	1.0962997e-10	-0.28499997	0	0
0	-0.17119297	6.9183964e-12	-6.4660395e-11	-0.29	0	0
0	-0.17119451	-3.193106e-12	-1.4901161e-10	-0.29500005	0	0
0	-0.17119603	2.6396343e-10	2.341611e-10	-0.30000007	0	0
0	-0.1711975	2.4480478e-11	2.2351742e-11	-0.30499998	0	0
0	-0.17119898	7.1844884e-11	5.3218432e-12	-0.31	0	0
0	-0.17120042	6.0136826e-11	3.1824623e-10	-0.315	0	0
0	-0.17120185	7.397362e-11	9.579318e-12	-0.32	0	0
0	-0.17120324	7.9295466e-11	-1.3623919e-10	-0.32499993	0	0
0	-0.17120463	-4.151038e-11	-1.0324376e-10	-0.32999995	0	0
0	-0.171206	-5.960465e-11	-1.5752656e-10	-0.335	0	0
0	-0.17120734	-5.4814986e-11	-4.8960957e-11	-0.34000006	0	0
0	-0.1712087	4.151038e-11	-1.798783e-10	-0.34499997	0	0
0	-0.17120999	-4.2574746e-12	1.5220472e-10	-0.35000002	0	0
0	-0.1712087	-2.3948295e-11	1.3836793e-10	-0.34499994	0	0
0	-0.17120738	1.4901162e-11	-6.6523044e-11	-0.34000006	0	0
0	-0.171206	-2.2883926e-11	-1.3623919e-10	-0.335	0	0
0	-0.17120464	2.5012664e-11	-1.3171562e-10	-0.32999995	0	0
0	-0.17120324	-1.0643686e-12	5.1089695e-11	-0.32499993	0	0
0	-0.17120185	1.2453114e-10	7.024833e-11	-0.32	0	0
0	-0.17120042	6.758741e-11	1.5114035e-10	-0.315	0	0
0	-0.17119898	3.8849455e-11	1.6604151e-10	-0.31	0	0
0	-0.1711975	1.17080555e-11	5.0025328e-11	-0.30499998	0	0
0	-0.17119603	1.2187021e-10	4.0446008e-11	-0.30000007	0	0
0	-0.17119451	3.7252905e-12	-2.341611e-10	-0.29500005	0	0
0	-0.17119297	6.9183964e-12	6.226557e-11	-0.29	0	0
0	-0.17119141	6.865178e-11	1.0962997e-10	-0.28499997	0	0
0	-0.17118981	1.3730356e-10	-3.8317273e-11	-0.2800001	0	0
0	-0.17118818	2.2883927e-10	-1.1388745e-10	-0.27500007	0	0
0	-0.17118655	1.969082e-10	-5.0025328e-11	-0.27	0	0
0	-0.17118491	-6.173338e-11	-1.937151e-10	-0.26499993	0	0
0	-0.17118321	-9.15357e-11	-1.9052199e-10	-0.2600001	0	0
0	-0.17118149	-9.047134e-11	-9.3664444e-11	-0.25500008	0	0
0	-0.17117973	-7.2909255e-11	-2.0329441e-10	-0.25	0	0
0	-0.17117797	7.397362e-11	-2.3416111e-11	-0.24499992	0	0
0	-0.17117617	2.2351742e-11	1.085656e-10	-0.23999989	0	0
0	-0.1711743	6.226557e-11	1.937151e-10	-0.23500003	0	0
0	-0.17117244	-6.332994e-11	1.6710588e-10	-0.22999999	0	0
0	-0.1711705	1.969082e-11	1.4049666e-10	-0.22499995	0	0
0	-0.17116858	-7.237707e-11	-6.1999475e-11	-0.21999997	0	0
0	-0.17116661	4.4703484e-11	1.5646219e-10	-0.21500002	0	0
0	-0.17116457	-3.193106e-12	9.260007e-11	-0.21000002	0	0
0	-0.17116253	-1.1388745e-10	4.8428775e-11	-0.20499995	0	0
0	-0.1711604	7.13127e-11	1.8094267e-11	-0.19999996	0	0
0	-0.17115828	4.8960957e-11	1.0643686e-12	-0.195	0	0
0	-0.17115611	1.4156103e-10	1.5752656e-10	-0.19000004	0	0
0	-0.17115387	-1.1708055e-10	-3.6507844e-10	-0.18499996	0	0
0	-0.1711516	1.1708055e-10	-3.166497e-11	-0.18000002	0	0
0	-0.17114927	1.085656e-10	2.384186e-10	-0.17500001	0	0
0	-0.1711469	3.299543e-11	6.386212e-11	-0.17000003	0	0
0	-0.1711445	5.854028e-11	7.610236e-11	-0.16499998	0	0
0	-0.171142	-5.3218432e-12	-4.5342105e-10	-0.16	0	0
0	-0.17113948	1.6497714e-10	1.9903694e-10	-0.155	0	0
0	-0.17113689	-1.2346676e-10	7.503799e-11	-0.15000004	0	0
0	-0.17113425	4.2574746e-12	-1.596553e-10	-0.145	0	0
0	-0.17113152	-4.2574746e-11	2.341611e-10	-0.14000005	0	0
0	-0.17112875	1.4581851e-10	2.7992897e-10	-0.135	0	0
0	-0.1711259	1.2772424e-11	-2.647617e-10	-0.13000005	0	0
0	-0.17112298	5.1089695e-11	8.514949e-12	-0.125	0	0
0	-0.17111999	1.1708055e-10	-6.705522e-11	-0.119999945	0	0
0	-0.17111693	-1.2665988e-10	-5.7475906e-11	-0.114999995	0	0
0	-0.17111377	2.5864158e-10	3.7252902e-11	-0.109999985	0	0
0	-0.17111054	1.8094267e-11	8.727823e-11	-0.10500001	0	0
0	-0.17110722	1.9158636e-11	-1.06436866e-10	-0.09999998	0	0
0	-0.17110379	-7.6634546e-11	2.277749e-10	-0.09500002	0	0
0	-0.17110027	2.575772e-10	1.2985298e-10	-0.09000001	0	0
0	-0.17109664	5.641154e-11	3.8317273e-11	-0.085000016	0	0
0	-0.17109291	9.7921914e-11	2.3628985e-10	-0.08	0	0
0	-0.17108908	1.2772424e-11	3.6188536e-10	-0.07500002	0	0
0	-0.1710851	-1.7136335e-10	4.4703484e-11	-0.07000002	0	0
0	-0.17108099	4.4703484e-11	7.024833e-11	-0.06500003	0	0
0	-0.17107679	6.9183964e-11	-3.938164e-10	-0.059999973	0	0
0	-0.17107241	7.769891e-11	1.085656e-10	-0.054999992	0	0
0	-0.1710679	-1.0217939e-10	-6.386212e-12	-0.04999999	0	0
0	-0.17106318	1.2772424e-11	-2.7673586e-11	-0.045000006	0	0
0	-0.17105833	1.4901161e-10	-1.1708055e-10	-0.04	0	0
0	-0.17105329	5.854028e-11	-2.5331975e-10	-0.03500001	0	0
0	-0.17104803	9.15357e-11	1.4688288e-10	-0.029999986	0	0
0	-0.1710426	4.0446008e-11	-1.766852e-10	-0.024999995	0	0
0	-0.17103693	3.8317273e-11	-7.344144e-11	-0.02	0	0
0	-0.17103101	1.9158636e-10	-1.2772423e-10	-0.014999993	0	0
0	-0.17102483	2.0542315e-10	-4.0446008e-10	-0.01	0	0
0	-0.17101836	-7.4505804e-11	-4.2574746e-11	-0.005	0	0
0	-0.17101161	2.8737953e-11	4.4916357e-10	2.654127e-16	0	0
0	-0.1710045	2.9802324e-11	4.3639117e-11	0.005	0	0
0	-0.17099705	-2.6609217e-11	1.6258231e-10	0.01	0	0
0	-0.17098919	8.621386e-11	2.8312205e-10	0.014999993	0	0
0	-0.17098089	-1.4901162e-11	4.3639117e-11	0.02	0	0
0	-0.17097211	-1.3517482e-10	-2.0223004e-10	0.024999995	0	0
0	-0.17096278	-2.7673586e-11	-3.299543e-11	0.029999986	0	0
0	-0.17095286	2.7673586e-11	2.3416111e-11	0.03500001	0	0
0	-0.17094225	1.1388745e-10	1.255955e-10	0.04	0	0
0	-0.17093089	3.054738e-10	-1.8520015e-10	0.045000006	0	0
0	-0.1709186	-8.302076e-11	1.085656e-10	0.04999999	0	0
0	-0.1709053	-7.982765e-11	-1.255955e-10	0.054999992	0	0
0	-0.1708908	2.3416111e-11	-5.854028e-11	0.059999973	0	0
0	-0.1708748	2.0648752e-10	-3.9275203e-10	0.06500003	0	0
0	-0.17085704	1.5220472e-10	2.1287373e-10	0.07000002	0	0
0	-0.17083699	-2.7673586e-11	5.1089695e-11	0.07500002	0	0
0	-0.17081389	1.9265073e-10	2.3309674e-10	0.08	0	0
0	-0.17078647	7.13127e-11	-5.3218433e-11	0.085000016	0	0
0	-0.17075202	1.00050655e-10	-2.341611e-10	0.09000001	0	0
0	-0.17070198	3.3634048e-10	-2.3628985e-10	0.09500002	0	0
0	0.032522913	3.2843224e-07	2.0223004e-11	0.09999998	0	0
0	0.035267714	4.0020262e-10	-1.290547e-11	0.10500001	0	0
0	0.038094375	2.5544847e-10	2.3416111e-11	0.109999985	0	0
0	0.040658444	8.0892015e-11	-7.450581e-12	0.114999995	0	0
0	0.043147653	2.2138869e-10	-1.06436865e-11	0.119999945	0	0
0	0.04570643	6.8119593e-10	2.075519e-11	0.125	0	0
0	0.04839347	5.534717e-10	-5.3218432e-12	0.13000005	0	0
0	0.051258136	8.174351e-10	8.727823e-11	0.135	0	0
0	0.0543577	9.962491e-10	-5.3218433e-11	0.14000005	0	0
0	0.05776438	7.833753e-10	-2.1287373e-11	0.145	0	0
0	0.061584726	9.196145e-10	3.7252905e-12	0.15000004	0	0
0	0.06597931	1.4219965e-09	-3.326152e-12	0.155	0	0
0	0.07121517	2.0648752e-09	-4.151038e-11	0.16	0	0
0	0.077796526	3.201621e-09	2.6077033e-11	0.16499998	0	0
0	0.08686906	2.4267606e-09	3.086669e-11	0.17000003	0	0
0	0.10248974	1.960567e-09	4.2574746e-12	0.17500001	0	0
0	0.14496067	2.5502274e-09	-3.8317273e-11	0.18000002	0	0
0	0.15137652	1.26447e-09	-3.5124164e-11	0.18499996	0	0
0	0.15529108	4.7470844e-10	3.5762787e-10	0.19000004	0	0
0	0.17115828	5.0025328e-11	-5.42828e-11	0.195	0	0
0	0.17116043	-1.426254e-10	-6.705522e-11	0.19999996	0	0
0	0.17116253	9.579318e-12	3.193106e-12	0.20499995	0	0
0	0.17116459	2.1287373e-12	-7.13127e-11	0.21000002	0	0
0	0.17116661	1.4901162e-11	-2.2671053e-10	0.21500002	0	0
0	0.17116858	7.4505804e-11	-4.8960957e-11	0.21999997	0	0
0	0.17117052	-2.2883926e-11	-3.938164e-10	0.22499995	0	0
0	0.17117244	4.7364404e-11	-2.341611e-10	0.22999999	0	0
0	0.1711743	-1.0217939e-10	-3.3634048e-10	0.23500003	0	0
0	0.17117617	7.982765e-12	-1.2080584e-10	0.23999989	0	0
0	0.17117797	3.8849455e-11	-4.789659e-11	0.24499992	0	0
0	0.17117974	-4.151038e-11	2.4374042e-10	0.25	0	0
0	0.1711815	-3.7252905e-12	5.641154e-11	0.25500008	0	0
0	0.17118321	3.6188535e-11	-5.3218432e-12	0.2600001	0	0
0	0.1711849	6.599086e-11	-8.514949e-12	0.26499993	0	0
0	0.17118655	-1.7242772e-10	0	0.27	0	0
0	0.17118818	-1.3677137e-10	7.5570175e-11	0.27500007	0	0
0	0.17118981	-1.4528632e-10	5.641154e-11	0.2800001	0	0
0	0.17119141	-5.375062e-11	-1.9903694e-10	0.28499997	0	0
0	0.17119297	-1.9158636e-11	8.1956386e-11	0.29	0	0
0	0.17119451	-1.1335526e-10	2.070197e-10	0.29500005	0	0
0	0.17119601	-2.0116568e-10	-1.8839325e-10	0.30000007	0	0
0	0.1711975	2.5012664e-11	-1.7029898e-11	0.30499998	0	0
0	0.17119896	-7.5570175e-11	4.0446008e-11	0.31	0	0
0	0.17120042	-1.03775946e-10	-1.0244548e-10	0.315	0	0
0	0.17120185	-3.9913826e-11	2.4693353e-10	0.32	0	0
0	0.17120324	1.0643686e-12	1.4847942e-10	0.32499993	0	0
0	0.17120464	7.450581e-12	9.579318e-12	0.32999995	0	0
0	0.171206	-7.503799e-11	1.8520015e-10	0.335	0	0
0	0.17120734	2.1287373e-12	-4.0446008e-11	0.34000006	0	0
0	0.1712087	1.17080555e-11	1.00050655e-10	0.34499994	0	0
