# t (s)	mx ()	my ()	mz ()	B_extx (T)	B_exty (T)	B_extz (T)
0	-5.960465e-11	0.9992227	5.8809915e-11	0	0	0
0	0.001041936	0.9992221	-2.193451e-10	0.001	0	0
0	0.0020839095	0.9992202	-8.742015e-12	0.002	0	0
0	0.0031259018	0.9992171	-2.1457672e-10	0.003	0	0
0	0.0041679605	0.9992127	-1.3510386e-10	0.004	0	0
0	0.0052102036	0.99920696	-1.2556711e-10	0.005	0	0
0	0.006252484	0.9992002	-3.0358632e-10	0.006	0	0
0	0.0072950204	0.9991919	-1.3669332e-10	0.007	0	0
0	0.008337661	0.9991825	2.0583471e-10	0.008	0	0
0	0.009380529	0.9991718	2.4239222e-10	0.009	0	0
0	0.010423597	0.9991598	-3.0199687e-11	0.01	0	0
0	0.011466956	0.99914664	1.5258789e-10	0.011000001	0	0
0	0.012510575	0.9991321	-9.536743e-12	0.012	0	0
0	0.013554504	0.99911636	-2.7020773e-11	0.013	0	0
0	0.0145987775	0.9990994	-5.165736e-11	0.014	0	0
0	0.015643422	0.999081	5.2452088e-11	0.014999999	0	0
0	0.016688444	0.99906135	-2.0345052e-10	0.016	0	0
0	0.017733939	0.9990404	3.0199687e-10	0.017000003	0	0
0	0.018779773	0.99901825	-2.3444494e-10	0.018	0	0
0	0.01982619	0.99899477	-1.7881394e-10	0.019	0	0
0	0.020873057	0.9989699	1.5258789e-10	0.02	0	0
0	0.021920517	0.99894387	0	0.021	0	0
0	0.022968495	0.99891645	7.152558e-11	0.022000002	0	0
0	0.024017114	0.9988877	7.033348e-11	0.023	0	0
0	0.025066392	0.9988575	-1.66893e-10	0.024	0	0
0	0.026116269	0.998826	-2.6067098e-10	0.025	0	0
0	0.02716691	0.9987933	-1.446406e-10	0.026	0	0
0	0.028218267	0.99875927	-1.5894572e-11	0.027	0	0
0	0.029270442	0.99872375	-2.8093655e-10	0.028	0	0
0	0.030323366	0.99868685	6.198883e-11	0.029	0	0
0	0.031377215	0.9986485	-2.5431315e-10	0.029999997	0	0
0	0.03243195	0.99860895	-3.1789144e-10	0.030999998	0	0
0	0.033487543	0.99856794	8.583069e-11	0.032	0	0
0	0.034544263	0.9985253	-1.2238821e-10	0.032999996	0	0
0	0.035601977	0.99848133	-3.0517577e-10	0.034000006	0	0
0	0.036660712	0.99843603	-1.1126201e-11	0.035	0	0
0	0.037720613	0.9983892	-1.5258789e-10	0.036	0	0
0	0.038781714	0.99834085	2.0345052e-10	0.037	0	0
0	0.03984399	0.998291	-2.5431315e-10	0.038	0	0
0	0.04090762	0.9982396	-7.7088676e-11	0.039000005	0	0
0	0.041972596	0.99818677	1.9391377e-10	0.04	0	0
0	0.043038983	0.9981323	2.3841857e-11	0.041000005	0	0
0	0.044106867	0.99807626	-3.496806e-10	0.042	0	0
0	0.04517631	0.99801856	1.1761983e-10	0.043	0	0
0	0.046247385	0.99795926	-1.6291936e-10	0.044000003	0	0
0	0.04732024	0.99789834	-1.0172526e-10	0.045	0	0
0	0.048394796	0.99783564	-1.4781952e-10	0.046	0	0
0	0.049471304	0.99777114	-1.6331672e-10	0.047	0	0
0	0.05054986	0.997705	-4.5776366e-10	0.048	0	0
0	0.051630437	0.997637	1.6530355e-10	0.049	0	0
0	0.05271332	0.9975672	5.086263e-11	0.05	0	0
0	0.05379854	0.9974954	-1.0172526e-10	0.051	0	0
0	0.05488625	0.99742174	1.3589858e-10	0.052	0	0
0	0.055976648	0.99734604	9.218852e-11	0.052999996	0	0
0	0.057069823	0.9972682	-1.235803e-10	0.054	0	0
0	0.058166042	0.99718815	-5.086263e-11	0.055	0	0
0	0.05926546	0.99710596	-3.1789144e-11	0.056	0	0
0	0.06036836	0.9970214	-2.7815502e-11	0.057	0	0
0	0.061475	0.99693435	0	0.058	0	0
0	0.062585555	0.99684477	-3.3537548e-10	0.059000008	0	0
0	0.063700505	0.9967525	8.6625415e-11	0.059999995	0	0
0	0.0648202	0.9966573	9.139379e-11	0.061	0	0
0	0.06594513	0.9965591	2.1219254e-10	0.061999995	0	0
0	0.06707576	0.9964576	-1.3987224e-10	0.06300001	0	0
0	0.06821278	0.99635273	1.1642774e-10	0.064	0	0
0	0.06935694	0.9962438	8.2651774e-11	0.065	0	0
0	0.07050923	0.9961305	-3.5047532e-10	0.06599999	0	0
0	0.07167077	0.9960126	-1.1960666e-10	0.06700001	0	0
0	0.07284312	0.99588937	1.5258789e-10	0.06800001	0	0
0	0.07402824	0.9957598	6.993612e-11	0.069	0	0
0	0.07522892	0.995623	-1.5258789e-10	0.07	0	0
0	0.07644892	0.9954771	-1.0172526e-10	0.071	0	0
0	0.077694125	0.9953196	1.680851e-10	0.072	0	0
0	0.078974254	0.9951466	-2.1656354e-10	0.073	0	0
0	0.08030739	0.99495	-3.2981236e-11	0.074	0	0
0	0.081736594	0.9947119	2.0662944e-11	0.075	0	0
0	0.08346109	0.99434584	-2.0345052e-10	0.076	0	0
0	0.13496378	0.9571224	9.218852e-11	0.077	0	0
0	0.13706562	0.95600855	-4.4504803e-11	0.07800001	0	0
0	0.1391807	0.95487523	0	0.079	0	0
0	0.14130451	0.95372593	8.583069e-11	0.08	0	0
0	0.14343804	0.9525603	8.2651774e-11	0.081	0	0
0	0.14558247	0.95137686	-3.973643e-11	0.08200001	0	0
0	0.14773902	0.95017487	-1.1126201e-11	0.083	0	0
0	0.14990838	0.9489536	1.3987224e-10	0.084	0	0
0	0.15209179	0.9477119	-9.2983246e-11	0.08499999	0	0
0	0.15429087	0.94644845	-6.596247e-11	0.08600001	0	0
0	0.15650648	0.9451622	-1.1841456e-10	0.08699999	0	0
0	0.15873969	0.9438523	-9.536743e-11	0.08800001	0	0
0	0.1609931	0.94251627	-5.086263e-11	0.088999994	0	0
0	0.16326725	0.9411535	1.5894572e-10	0.09	0	0
0	0.16556412	0.9397624	2.7020773e-11	0.09099999	0	0
0	0.16788645	0.9383402	-6.3578288e-12	0.092	0	0
0	0.17023589	0.93688524	-1.8755594e-10	0.092999995	0	0
0	0.17261656	0.9353935	-3.2901765e-10	0.094	0	0
0	0.17503168	0.93386227	2.2888183e-10	0.09499999	0	0
0	0.17748564	0.9322868	-5.086263e-11	0.096	0	0
0	0.17998442	0.9306614	-3.9418538e-10	0.09700001	0	0
0	0.18253614	0.9289782	1.3510386e-10	0.098	0	0
0	0.18515101	0.9272275	1.9073486e-10	0.099	0	0
0	0.187845	0.92539334	-1.0172526e-10	0.1	0	0
0	0.19063954	0.9234546	5.086263e-11	0.10100001	0	0
0	0.19357088	0.92137575	-4.1007994e-10	0.102	0	0
0	0.19669525	0.91910106	1.0172526e-10	0.102999985	0	0
0	0.20010753	0.9165355	-2.5510788e-10	0.104	0	0
0	0.20389114	0.9135896	8.2651774e-11	0.105	0	0
0	0.20784907	0.91044086	-2.7974448e-10	0.10599999	0	0
0	0.21154992	0.9075098	2.8610229e-11	0.10700001	0	0
0	0.21492615	0.9048751	1.3987224e-10	0.108	0	0
0	0.2180872	0.9024374	-5.086263e-11	0.109	0	0
0	0.22111519	0.90011966	7.4704486e-11	0.11	0	0
0	0.22405969	0.897875	3.7670136e-10	0.111	0	0
0	0.22695081	0.8956746	-2.0980835e-10	0.112	0	0
0	0.22980924	0.8934984	-3.814697e-11	0.113	0	0
0	0.23264727	0.8913349	4.3233236e-10	0.114	0	0
0	0.23547453	0.8891746	-1.2715658e-10	0.115	0	0
0	0.2382986	0.88701	-7.629394e-11	0.116	0	0
0	0.24112524	0.8848354	1.8437704e-10	0.117	0	0
0	0.24395825	0.8826471	3.1471253e-10	0.118000016	0	0
0	0.24680154	0.8804411	-3.973643e-12	0.119	0	0
0	0.2496587	0.87821394	1.2715658e-10	0.11999999	0	0
0	0.25253215	0.8759628	1.9073486e-10	0.121	0	0
0	0.25542495	0.87368476	-2.5431315e-11	0.122000016	0	0
0	0.25833872	0.87137794	-9.536743e-11	0.123	0	0
0	0.26127666	0.869039	-1.5894572e-11	0.12399999	0	0
0	0.26424003	0.8666665	4.4504803e-11	0.125	0	0
0	0.26723152	0.86425763	7.629394e-11	0.12600002	0	0
0	0.27025202	0.86181116	-2.2888183e-10	0.127	0	0
0	0.2733045	0.85932386	4.7683715e-11	0.128	0	0
0	0.27639186	0.8567926	1.4940897e-10	0.129	0	0
0	0.27951327	0.8542181	1.5258789e-10	0.13	0	0
0	0.28267387	0.8515948	4.196167e-10	0.131	0	0
0	0.2858728	0.8489232	-2.5431315e-11	0.13199998	0	0
0	0.28911635	0.84619665	-7.629394e-11	0.133	0	0
0	0.29240292	0.8434164	7.629394e-11	0.13400002	0	0
0	0.2957363	0.8405785	-4.5776366e-10	0.13500002	0	0
0	0.2991195	0.8376792	1.6530355e-10	0.13600002	0	0
0	0.30255494	0.8347156	-1.5258789e-10	0.13699998	0	0
0	0.30604398	0.83168614	-1.5258789e-10	0.138	0	0
0	0.30959168	0.8285849	1.5258789e-10	0.139	0	0
0	0.31320035	0.8254093	0	0.14	0	0
0	0.31687215	0.82215637	-1.14440915e-10	0.141	0	0
0	0.32061216	0.8188205	-5.086263e-11	0.142	0	0
0	0.32442367	0.8153973	2.0345052e-10	0.143	0	0
0	0.32831138	0.8118818	-5.086263e-11	0.144	0	0
0	0.3322783	0.8082699	-2.5431315e-11	0.14499998	0	0
0	0.33633047	0.80455464	0	0.146	0	0
0	0.34047186	0.8007311	-4.5776366e-10	0.14700001	0	0
0	0.34470814	0.7967927	-5.086263e-10	0.148	0	0
0	0.34904647	0.7927309	-2.0345052e-10	0.149	0	0
0	0.3534915	0.78853977	-1.0172526e-10	0.15	0	0
0	0.35805196	0.7842094	-2.5431315e-11	0.15100001	0	0
0	0.36273375	0.77973217	-2.5431315e-11	0.152	0	0
0	0.3675489	0.77509415	-1.5258789e-10	0.15299998	0	0
0	0.3725034	0.77028793	-1.0172526e-10	0.154	0	0
0	0.37760928	0.76529896	1.5258789e-10	0.15500002	0	0
0	0.38287795	0.760114	0	0.15600002	0	0
0	0.3883204	0.7547193	0	0.157	0	0
0	0.39395478	0.74909353	1.0172526e-10	0.158	0	0
0	0.3997931	0.74322206	4.5776366e-10	0.159	0	0
0	0.40585834	0.7370776	0	0.16	0	0
0	0.4121656	0.73064154	3.306071e-10	0.16099998	0	0
0	0.41874555	0.7238777	2.0345052e-10	0.162	0	0
0	0.425621	0.7167583	-1.0172526e-10	0.16300002	0	0
0	0.4328232	0.70924616	5.086263e-10	0.16400002	0	0
0	0.440389	0.7012966	0	0.165	0	0
0	0.44836384	0.69285554	4.0690104e-10	0.166	0	0
0	0.45680094	0.68385935	-2.5431315e-10	0.167	0	0
0	0.4657595	0.67423666	-1.0172526e-10	0.168	0	0
0	0.4753199	0.66389126	5.086263e-11	0.169	0	0
0	0.48557135	0.6527163	3.0517577e-10	0.16999999	0	0
0	0.49664256	0.6405578	1.0172526e-10	0.171	0	0
0	0.5086796	0.6272403	-1.5258789e-10	0.172	0	0
0	0.52189314	0.6125118	3.5603842e-10	0.173	0	0
0	0.53656286	0.59603727	4.5776366e-10	0.17399998	0	0
0	0.5531041	0.57731956	-4.0690104e-10	0.175	0	0
0	0.5721395	0.55561376	2.5431315e-10	0.17600001	0	0
0	0.5947026	0.5296826	1.0172526e-10	0.177	0	0
0	0.6228188	0.49710304	5.086263e-11	0.17799999	0	0
0	0.66128325	0.45213598	2.0345052e-10	0.179	0	0
0	0.7280695	0.37323087	4.5776366e-10	0.18	0	0
0	0.79872817	0.2890558	4.5776366e-10	0.18099998	0	0
0	0.82385457	0.25910574	-6.4849853e-10	0.18199998	0	0
0	0.83855444	0.24161932	5.086263e-11	0.183	0	0
0	0.8492414	0.22893097	5.086263e-10	0.184	0	0
0	0.8578002	0.21878625	1.0172526e-10	0.18500002	0	0
0	0.8650287	0.2102307	4.0690104e-10	0.18599999	0	0
0	0.87135166	0.20275615	3.5603842e-10	0.187	0	0
0	0.8770154	0.1960681	-6.1035155e-10	0.188	0	0
0	0.88218737	0.18996635	9.155273e-10	0.18900001	0	0
0	0.8869772	0.18432	3.973643e-10	0.18999998	0	0
0	0.8914664	0.17903182	-5.5948896e-10	0.191	0	0
0	0.89572394	0.17401952	-5.086263e-11	0.192	0	0
0	0.8998049	0.16921817	1.5258789e-10	0.19300002	0	0
0	0.90375894	0.16456872	1.0935466e-09	0.19400002	0	0
0	0.90764165	0.16000588	9.6639e-10	0.195	0	0
0	0.9115206	0.15545	1.27156575e-11	0.196	0	0
0	0.9154903	0.15079075	-3.0517577e-10	0.19700001	0	0
0	0.9196975	0.14585797	0	0.19799997	0	0
0	0.9246071	0.14011036	-2.5431315e-10	0.19899999	0	0
0	0.9983948	1.6712029e-07	1.3796488e-09	0.2	0	0
0	0.9983973	1.0712942e-09	-1.505216e-09	0.20100002	0	0
0	0.9984	7.78834e-11	-5.086263e-11	0.20200002	0	0
0	0.9984024	-4.2915345e-11	-9.727478e-10	0.203	0	0
0	0.998405	1.7865499e-09	4.4504803e-11	0.204	0	0
0	0.9984076	-6.818771e-10	-1.3033549e-10	0.20500001	0	0
0	0.99841	-7.1207684e-10	4.418691e-10	0.20599997	0	0
0	0.9984125	-1.0697047e-09	1.2906393e-09	0.20699999	0	0
0	0.998415	-4.2120615e-10	1.1189779e-09	0.208	0	0
0	0.9984175	-3.528595e-10	4.5776366e-10	0.209	0	0
0	0.99842	-7.3750817e-10	-4.0372214e-10	0.21	0	0
0	0.9984225	-7.2161355e-10	-5.722046e-10	0.21099998	0	0
0	0.9984249	5.118052e-10	4.736582e-10	0.21199998	0	0
0	0.9984273	-1.2016297e-09	-3.3696493e-10	0.21300001	0	0
0	0.9984299	-3.194809e-10	4.4504803e-11	0.21400002	0	0
0	0.9984323	-2.9881794e-10	-1.7801921e-10	0.21499997	0	0
0	0.9984346	1.1126201e-10	1.1539459e-09	0.216	0	0
0	0.9984371	-2.304713e-10	1.4432271e-09	0.217	0	0
0	0.9984395	-5.2452088e-11	1.9073486e-11	0.218	0	0
0	0.9984419	-2.2761026e-09	-3.4332276e-10	0.21900003	0	0
0	0.99844426	-2.1616618e-10	-5.086263e-11	0.22	0	0
0	0.99844664	-4.1484832e-10	-1.1920929e-09	0.221	0	0
0	0.99844897	-6.11941e-10	-1.2874604e-09	0.222	0	0
0	0.9984515	-7.454554e-10	-7.1843465e-10	0.22299998	0	0
0	0.99845374	-2.559026e-10	1.5894572e-11	0.224	0	0
0	0.99845606	-9.218852e-10	-7.05719e-10	0.225	0	0
0	0.9984583	6.1511995e-10	-4.2597453e-10	0.226	0	0
0	0.9984607	4.5458476e-10	-1.5258789e-10	0.22700003	0	0
0	0.99846315	3.306071e-10	2.6067098e-10	0.228	0	0
0	0.9984654	1.5513102e-09	-1.9613902e-09	0.229	0	0
0	0.9984677	2.6861827e-10	1.9073486e-11	0.23	0	0
0	0.99847	-6.834666e-11	-3.1789144e-12	0.23099998	0	0
0	0.9984722	4.5140583e-10	-1.3669332e-10	0.232	0	0
0	0.9984746	-1.6212463e-10	-1.1237462e-09	0.233	0	0
0	0.99847674	-3.973643e-10	-1.2715658e-10	0.234	0	0
0	0.99847895	-1.3637542e-09	6.0717265e-10	0.235	0	0
0	0.9984813	-8.3446505e-10	-2.9563904e-10	0.23600003	0	0
0	0.99848354	-8.3287555e-10	2.3206075e-10	0.237	0	0
0	0.9984858	-5.086263e-11	7.279714e-10	0.238	0	0
0	0.998488	-3.9100648e-10	6.7392986e-10	0.23899998	0	0
0	0.9984902	-3.5921732e-10	2.485911e-09	0.23999998	0	0
0	0.9984925	-1.6212463e-10	3.7988027e-10	0.241	0	0
0	0.99849457	1.2079875e-10	3.0517577e-10	0.242	0	0
0	0.9984968	6.2465666e-10	4.2438508e-10	0.243	0	0
0	0.998499	8.217494e-10	-1.5894572e-11	0.24400003	0	0
0	0.99850124	-6.389618e-10	-2.9881794e-10	0.245	0	0
0	0.9985033	9.493033e-10	-6.786982e-10	0.246	0	0
0	0.9985054	2.7338665e-10	3.6875408e-10	0.247	0	0
0	0.9985076	-9.473164e-10	6.167094e-10	0.24799998	0	0
0	0.99850976	-3.3696493e-10	9.6639e-10	0.249	0	0
0	0.99851185	-1.5242895e-09	-3.528595e-10	0.25	0	0
0	0.99851406	-7.9631807e-10	4.1643777e-10	0.251	0	0
0	0.99851614	9.552638e-10	2.266566e-09	0.25200003	0	0
0	0.99851835	-1.0172526e-10	3.8146972e-10	0.253	0	0
0	0.99852043	-5.2452087e-10	-1.3160706e-09	0.254	0	0
0	0.9985225	-6.1591465e-10	8.9327495e-10	0.255	0	0
0	0.9985246	1.9073486e-10	1.4241537e-09	0.256	0	0
0	0.9985267	-4.5220058e-10	-1.1459986e-09	0.257	0	0
0	0.9985288	-1.1316935e-09	1.1412302e-09	0.258	0	0
0	0.9985308	1.7770131e-09	6.039937e-11	0.259	0	0
0	0.9985329	2.4636587e-10	-2.6702882e-10	0.26	0	0
0	0.998535	-4.6888987e-10	-6.0081484e-10	0.26100004	0	0
0	0.998537	8.3287555e-10	6.1035155e-10	0.262	0	0
0	0.99853915	-6.834666e-10	1.0140737e-09	0.263	0	0
0	0.99854106	-1.9232432e-10	1.2715657e-09	0.26399997	0	0
0	0.99854314	-1.4940897e-10	-3.0517577e-10	0.265	0	0
0	0.9985451	2.749761e-10	3.115336e-10	0.266	0	0
0	0.9985472	-5.4518384e-10	-6.993612e-10	0.267	0	0
0	0.99854916	-5.785624e-10	1.1348724e-09	0.26800004	0	0
0	0.99855125	-7.7088674e-10	2.6067098e-10	0.26900002	0	0
0	0.9985532	-3.5127004e-10	-1.0681153e-09	0.27000004	0	0
0	0.9985552	-8.5830687e-10	-8.2651774e-10	0.271	0	0
0	0.9985572	-1.2056033e-09	1.1380513e-09	0.27200004	0	0
0	0.9985592	1.8119813e-10	-6.7075095e-10	0.27299997	0	0
0	0.99856126	-3.3696493e-10	-4.1325887e-10	0.27399996	0	0
0	0.9985631	4.561742e-10	-6.7075095e-10	0.275	0	0
0	0.9985651	1.8278758e-10	1.3256073e-09	0.276	0	0
0	0.998567	-9.346008e-10	3.4014383e-10	0.27700004	0	0
0	0.99856895	9.6639e-10	-6.4849853e-10	0.278	0	0
0	0.9985709	5.3246817e-11	-5.1816307e-10	0.279	0	0
0	0.99857295	-3.5762787e-10	-6.7075095e-10	0.28	0	0
0	0.9985748	-2.6226044e-10	-9.822846e-10	0.281	0	0
0	0.99857664	5.1339466e-10	3.814697e-11	0.282	0	0
0	0.99857867	-5.849202e-10	-1.27156575e-11	0.283	0	0
0	0.9985805	-1.3987224e-10	-2.1266937e-09	0.284	0	0
0	0.9985825	5.09421e-10	7.1843465e-10	0.28500003	0	0
0	0.9985844	5.9525174e-10	-4.4504803e-10	0.286	0	0
0	0.9985861	-1.27156575e-11	6.1035155e-10	0.287	0	0
0	0.99858814	-7.23203e-10	-1.1825562e-09	0.288	0	0
0	0.99859	-1.5274684e-09	5.086263e-11	0.289	0	0
0	0.9985919	4.1325887e-10	-2.5431315e-11	0.28999996	0	0
0	0.99859375	1.0649364e-09	5.912781e-10	0.291	0	0
0	0.9985956	4.9591065e-10	4.227956e-10	0.292	0	0
0	0.9985975	8.360545e-10	4.5776366e-10	0.293	0	0
0	0.9985993	-6.961823e-10	6.357829e-11	0.29400003	0	0
0	0.998601	-3.25044e-10	5.4041546e-11	0.295	0	0
0	0.9986029	-2.2570291e-10	4.863739e-10	0.296	0	0
0	0.9986048	-1.5179316e-10	-3.115336e-10	0.29699996	0	0
0	0.9986067	-4.0372214e-10	4.9591065e-10	0.298	0	0
0	0.9986084	5.0703686e-10	7.5976053e-10	0.29899997	0	0
0	0.9986103	-1.1277199e-09	7.7883405e-10	0.3	0	0
0	0.9986121	-4.5140583e-10	3.7829082e-10	0.301	0	0
0	0.99861395	6.548564e-10	1.5195211e-09	0.30200002	0	0
0	0.9986156	-9.886424e-10	-3.5921732e-10	0.30300003	0	0
0	0.9986174	9.775162e-11	-3.1789144e-10	0.304	0	0
0	0.99861926	3.3219655e-10	-8.5830687e-10	0.305	0	0
0	0.99862105	-3.4888586e-10	7.2161355e-10	0.30599996	0	0
0	0.9986229	-7.168452e-10	-4.4504803e-11	0.307	0	0
0	0.99862456	-3.4809114e-10	-3.7193298e-10	0.308	0	0
0	0.9986265	-6.3578287e-10	-1.783371e-09	0.309	0	0
0	0.99862826	-5.8015187e-10	8.9327495e-10	0.31000003	0	0
0	0.9986298	-6.373723e-10	-1.9709269e-10	0.311	0	0
0	0.99863166	1.1110306e-09	-7.724762e-10	0.31200004	0	0
0	0.9986333	1.9248327e-09	-5.4041543e-10	0.31299996	0	0
0	0.99863523	9.950002e-10	-9.536743e-11	0.314	0	0
0	0.9986369	-1.1905035e-09	-9.6639e-10	0.31499997	0	0
0	0.99863863	-8.503596e-10	-8.4877017e-10	0.316	0	0
0	0.9986402	-1.4034907e-09	-2.892812e-10	0.317	0	0
0	0.99864197	-1.2032191e-09	-5.467733e-10	0.318	0	0
0	0.99864376	9.679795e-10	-1.1030833e-09	0.31900004	0	0
0	0.9986454	-5.5154165e-10	-4.0690104e-10	0.32	0	0
0	0.9986473	8.9009605e-11	-7.2161355e-10	0.321	0	0
0	0.9986489	-2.304713e-10	7.1207684e-10	0.32199997	0	0
0	0.9986505	3.3378602e-11	4.2597453e-10	0.32299998	0	0
0	0.9986523	5.165736e-11	-5.2134197e-10	0.324	0	0
0	0.99865395	3.5444894e-10	-1.7166138e-10	0.325	0	0
0	0.9986556	-8.4718066e-10	-8.9009605e-11	0.32600003	0	0
0	0.9986573	-2.7974448e-10	8.2651774e-11	0.327	0	0
0	0.99865896	1.2954076e-09	-2.9563904e-10	0.32800004	0	0
0	0.9986606	-2.1457672e-10	6.866455e-10	0.329	0	0
0	0.9986624	-9.409586e-10	5.086263e-11	0.33	0	0
0	0.99866384	1.2699763e-09	1.7166138e-10	0.33099997	0	0
0	0.99866563	-5.912781e-10	-2.892812e-10	0.332	0	0
0	0.9986673	-1.9788741e-10	1.557668e-10	0.333	0	0
0	0.99866885	-9.226799e-10	1.6403198e-09	0.334	0	0
0	0.9986705	2.9325486e-10	-5.6902566e-10	0.33500004	0	0
0	0.9986723	-2.9087066e-10	-8.5512797e-10	0.336	0	0
0	0.99867386	-1.077652e-09	2.3523966e-10	0.337	0	0
0	0.9986754	-1.2858709e-09	2.861023e-10	0.338	0	0
0	0.99867696	1.6212463e-10	8.9009605e-10	0.339	0	0
0	0.9986786	-8.5512797e-10	5.086263e-10	0.33999997	0	0
0	0.9986803	-1.5894572e-11	2.7656555e-10	0.341	0	0
0	0.9986819	-2.0980835e-10	5.3405763e-10	0.342	0	0
0	0.9986835	-8.72612e-10	-7.311503e-11	0.34300002	0	0
0	0.998685	6.3260397e-10	4.1325887e-10	0.344	0	0
0	0.9986867	-1.5099843e-11	-6.3260397e-10	0.34500003	0	0
0	0.9986882	9.48906e-10	5.086263e-10	0.346	0	0
0	0.9986898	-8.106232e-11	1.1571248e-09	0.347	0	0
0	0.99869144	8.7420143e-10	7.343292e-10	0.34799996	0	0
0	0.99869305	6.278356e-10	6.548564e-10	0.349	0	0
0	0.9986946	5.912781e-10	-1.7801921e-10	0.35	0	0
0	0.99869615	5.00679e-11	1.5258789e-10	0.351	0	0
0	0.9986977	-2.2252401e-11	2.3523966e-10	0.35200003	0	0
0	0.99869925	-9.250641e-10	-5.086263e-11	0.35299996	0	0
0	0.99870086	-5.0226845e-10	7.8519186e-10	0.354	0	0
0	0.9987024	-2.0980835e-10	7.629394e-11	0.35499996	0	0
0	0.99870384	-2.1696091e-10	2.4477642e-10	0.35599998	0	0
0	0.9987055	-5.753835e-10	9.504953e-10	0.35699996	0	0
0	0.998707	-8.630753e-10	5.5631e-10	0.358	0	0
0	0.9987084	1.1825562e-09	1.0681153e-09	0.359	0	0
0	0.9987101	7.629394e-11	-5.9604643e-10	0.36	0	0
0	0.9987116	1.7801921e-10	1.150767e-09	0.36100003	0	0
0	0.99871314	9.695689e-11	-4.005432e-10	0.36199996	0	0
0	0.99871457	9.695689e-11	6.278356e-10	0.363	0	0
0	0.99871606	-5.2452088e-11	-3.5127004e-10	0.36399996	0	0
0	0.9987176	-5.674362e-10	1.1761983e-10	0.365	0	0
0	0.99871916	1.2556711e-10	7.05719e-10	0.366	0	0
0	0.99872065	-9.2665353e-10	-5.4041546e-11	0.367	0	0
0	0.9987221	-1.6212463e-10	-4.1643777e-10	0.368	0	0
0	0.9987236	1.0967255e-09	3.115336e-10	0.369	0	0
0	0.99872524	-3.4014383e-10	3.1789144e-12	0.37000003	0	0
0	0.99872655	-6.731351e-10	1.4591217e-09	0.37099996	0	0
0	0.9987281	1.3033549e-10	4.2597453e-10	0.37199998	0	0
0	0.9987296	-2.5749206e-10	1.7054875e-09	0.37299997	0	0
0	0.998731	-2.9087066e-10	-4.83195e-10	0.374	0	0
0	0.9987325	-8.312861e-10	8.106232e-10	0.375	0	0
0	0.99873394	-1.192093e-10	1.2175242e-09	0.376	0	0
0	0.9987354	-1.6053518e-10	1.5036266e-09	0.37700003	0	0
0	0.99873686	-6.389618e-10	-6.4531963e-10	0.37800002	0	0
0	0.99873835	4.2915345e-11	7.5658163e-10	0.37900004	0	0
0	0.9987398	8.138021e-10	1.7929077e-09	0.37999997	0	0
0	0.99874127	6.024043e-10	-1.1126201e-11	0.38099998	0	0
0	0.9987427	4.2915345e-11	6.135305e-10	0.382	0	0
0	0.9987441	-1.3224284e-09	-4.0690104e-10	0.383	0	0
0	0.9987455	1.4305115e-10	6.580353e-10	0.384	0	0
0	0.998747	-3.306071e-10	-5.753835e-10	0.385	0	0
0	0.99874836	-1.0871887e-09	5.2134197e-10	0.38600004	0	0
0	0.9987498	-5.4279964e-10	-1.5735627e-10	0.38699993	0	0
0	0.9987512	1.3868015e-09	5.849202e-10	0.38800004	0	0
0	0.9987526	-1.5099844e-10	7.279714e-10	0.38899997	0	0
0	0.99875396	-2.6543936e-10	1.6530355e-10	0.39	0	0
0	0.9987554	3.194809e-10	4.5458476e-10	0.391	0	0
0	0.99875677	5.618731e-10	-5.4041543e-10	0.392	0	0
0	0.9987583	-4.673004e-10	-7.5022377e-10	0.39300004	0	0
0	0.9987597	4.609426e-10	1.27156575e-11	0.39400002	0	0
0	0.99876106	-1.467069e-09	5.4041546e-11	0.39500004	0	0
0	0.9987625	-1.9637743e-09	-4.1007994e-10	0.39599994	0	0
0	0.99876386	3.9895376e-10	-1.9709269e-10	0.39700004	0	0
0	0.99876523	-6.667773e-10	3.417333e-10	0.39799997	0	0
0	0.99876666	5.4041543e-10	1.9868216e-09	0.39899996	0	0
0	0.99876803	-7.05719e-10	-2.0662944e-10	0.4	0	0
0	0.99876666	-1.192093e-10	1.2842815e-09	0.39899996	0	0
0	0.9987653	-5.356471e-10	-2.0662944e-10	0.39799997	0	0
0	0.99876386	3.3378602e-11	1.1825562e-09	0.39700004	0	0
0	0.9987625	-4.418691e-10	-6.548564e-10	0.39599994	0	0
0	0.99876106	-7.2161355e-10	-4.1325887e-10	0.39500004	0	0
0	0.9987597	9.012222e-10	-3.6239625e-10	0.39400002	0	0
0	0.9987583	-1.4193853e-09	-7.947286e-11	0.39300004	0	0
0	0.99875677	1.9232432e-10	-2.5749206e-10	0.392	0	0
0	0.9987555	5.086263e-11	6.7710876e-10	0.391	0	0
0	0.9987541	1.4066696e-10	-5.5948896e-10	0.39	0	0
0	0.9987526	-2.5431315e-11	9.950002e-10	0.38899997	0	0
0	0.9987512	2.8610229e-11	9.314219e-10	0.38800004	0	0
0	0.9987498	-4.943212e-10	-5.976359e-10	0.38699993	0	0
0	0.99874836	-8.424123e-10	6.198883e-10	0.38600004	0	0
0	0.998747	7.311503e-10	6.357829e-11	0.385	0	0
0	0.9987455	8.312861e-10	4.4504803e-11	0.384	0	0
0	0.9987441	-6.1829886e-10	1.4623006e-10	0.383	0	0
0	0.9987427	2.0503997e-10	2.749761e-10	0.382	0	0
0	0.99874115	-3.0199687e-11	-1.2397766e-10	0.38099998	0	0
0	0.9987398	3.8464865e-10	2.005895e-09	0.37999997	0	0
0	0.99873835	6.50088e-10	2.1362305e-09	0.37900004	0	0
0	0.99873686	-7.0095063e-10	-2.3523966e-10	0.37800002	0	0
0	0.9987354	-1.0331472e-10	1.0808309e-09	0.37700003	0	0
0	0.99873394	1.1237462e-09	9.377797e-10	0.376	0	0
0	0.9987325	-1.3812383e-09	5.722046e-10	0.375	0	0
0	0.998731	1.0538102e-09	-8.869171e-10	0.374	0	0
0	0.9987296	-3.3299127e-10	1.077652e-09	0.37299997	0	0
0	0.9987281	-6.6280365e-10	6.6757204e-11	0.37199998	0	0
0	0.99872655	-6.691615e-10	1.2652079e-09	0.37099996	0	0
0	0.99872524	-1.1722247e-09	3.4332276e-10	0.37000003	0	0
0	0.99872357	-2.1298727e-10	1.2715658e-10	0.369	0	0
0	0.9987222	-1.6689301e-11	3.2107036e-10	0.368	0	0
0	0.99872065	-6.67572e-10	-8.9963276e-10	0.367	0	0
0	0.99871916	2.9087066e-10	-2.638499e-10	0.366	0	0
0	0.9987176	-4.5140583e-10	-1.3987224e-10	0.365	0	0
0	0.99871606	4.005432e-10	-5.3405763e-10	0.36399996	0	0
0	0.99871457	7.454554e-10	-5.6584676e-10	0.363	0	0
0	0.99871314	7.1207684e-10	9.218852e-11	0.36199996	0	0
0	0.9987116	5.086263e-11	5.2134197e-10	0.36100003	0	0
0	0.9987101	8.1857043e-10	-5.4359434e-10	0.36	0	0
0	0.9987084	4.5458476e-10	1.3351441e-10	0.359	0	0
0	0.9987069	-5.6902566e-10	6.2942507e-10	0.358	0	0
0	0.9987055	1.8914541e-10	2.4318694e-10	0.35699996	0	0
0	0.99870384	-6.7710876e-10	1.0172526e-09	0.35599998	0	0
0	0.9987024	1.4058749e-09	7.2956086e-10	0.35499996	0	0
0	0.99870086	-8.3208085e-10	1.2302399e-09	0.354	0	0
0	0.99869925	-2.5828678e-10	-3.1789144e-10	0.35299996	0	0
0	0.9986978	-1.557668e-10	1.1126201e-10	0.35200003	0	0
0	0.99869615	1.7007191e-10	6.1035155e-10	0.351	0	0
0	0.9986946	-4.3551127e-10	-8.074443e-10	0.35	0	0
0	0.99869305	3.2901765e-10	1.0553995e-09	0.349	0	0
0	0.99869144	1.5846888e-09	8.2651774e-11	0.34799996	0	0
0	0.9986899	4.4027965e-10	-4.673004e-10	0.347	0	0
0	0.9986882	7.0095063e-10	6.834666e-10	0.346	0	0
0	0.9986867	-5.531311e-10	-6.961823e-10	0.34500003	0	0
0	0.9986851	1.0204315e-09	1.2429555e-09	0.344	0	0
0	0.9986835	-8.7420143e-10	2.8292338e-10	0.34300002	0	0
0	0.9986819	2.7338665e-10	0	0.342	0	0
0	0.9986803	5.7697297e-10	-2.384186e-10	0.341	0	0
0	0.9986786	-4.7683715e-12	1.2715658e-10	0.33999997	0	0
0	0.9986771	3.3378602e-11	7.3750817e-10	0.339	0	0
0	0.9986754	-2.0074844e-09	7.4068707e-10	0.338	0	0
0	0.99867386	-1.2127558e-09	-9.791057e-10	0.337	0	0
0	0.99867207	-2.638499e-10	3.1789144e-12	0.336	0	0
0	0.9986705	-5.880992e-10	-1.4940897e-10	0.33500004	0	0
0	0.99866885	-6.532669e-10	1.8850963e-09	0.334	0	0
0	0.9986673	-6.8902967e-10	3.671646e-10	0.333	0	0
0	0.99866563	-2.646446e-10	-8.281072e-10	0.332	0	0
0	0.99866384	1.262029e-09	4.9591065e-10	0.33099997	0	0
0	0.9986623	-1.1078517e-09	-8.106232e-10	0.33	0	0
0	0.9986606	-6.4531963e-10	7.4386597e-10	0.329	0	0
0	0.99865896	3.0676525e-10	-3.973643e-10	0.32800004	0	0
0	0.9986573	-6.198883e-10	-5.849202e-10	0.327	0	0
0	0.9986556	-8.670489e-10	-5.2134197e-10	0.32600003	0	0
0	0.99865395	7.4068707e-10	-4.736582e-10	0.325	0	0
0	0.9986523	5.086263e-11	-1.0967255e-09	0.324	0	0
0	0.9986506	2.9563904e-10	9.536743e-11	0.32299998	0	0
0	0.9986489	-3.6080677e-10	-2.415975e-10	0.32199997	0	0
0	0.9986472	2.1219254e-10	-1.2429555e-09	0.321	0	0
0	0.9986454	-1.4305114e-11	-5.849202e-10	0.32	0	0
0	0.99864376	2.1000703e-10	-1.5227e-09	0.31900004	0	0
0	0.99864197	-6.6280365e-10	-7.8837076e-10	0.318	0	0
0	0.9986402	-4.768372e-10	-5.054474e-10	0.317	0	0
0	0.99863863	-1.4718373e-09	-2.6067098e-10	0.316	0	0
0	0.9986369	-1.7420451e-09	-8.9963276e-10	0.31499997	0	0
0	0.9986351	4.4663748e-10	-2.5749206e-10	0.314	0	0
0	0.99863344	1.3192495e-09	-7.5658163e-10	0.31299996	0	0
0	0.99863166	1.7642975e-10	-6.4214073e-10	0.31200004	0	0
0	0.99862987	-5.94457e-10	-2.8292338e-10	0.311	0	0
0	0.99862814	-3.449122e-10	9.377797e-10	0.31000003	0	0
0	0.9986265	-5.674362e-10	-1.0585784e-09	0.309	0	0
0	0.9986247	3.8146972e-10	3.9100648e-10	0.308	0	0
0	0.9986229	-5.467733e-10	-3.7829082e-10	0.307	0	0
0	0.99862105	5.5631003e-11	-4.8955284e-10	0.30599996	0	0
0	0.9986194	-2.972285e-10	4.1007994e-10	0.305	0	0
0	0.9986174	-4.2438508e-10	8.503596e-10	0.304	0	0
0	0.9986156	-9.012222e-10	-1.2397766e-09	0.30300003	0	0
0	0.99861395	2.5749206e-10	1.8437704e-09	0.30200002	0	0
0	0.9986121	5.94457e-10	1.1285146e-10	0.301	0	0
0	0.9986103	-5.499522e-10	-2.2411346e-10	0.3	0	0
0	0.9986084	-5.0385796e-10	6.4531963e-10	0.29899997	0	0
0	0.9986067	-1.1841456e-09	1.3669332e-10	0.298	0	0
0	0.9986049	2.9087066e-10	-7.5658163e-10	0.29699996	0	0
0	0.9986029	4.1325887e-11	1.1062622e-09	0.296	0	0
0	0.99860114	-5.467733e-10	-6.0717265e-10	0.295	0	0
0	0.9985993	-4.1802725e-10	-6.0081484e-10	0.29400003	0	0
0	0.9985975	8.869171e-10	3.274282e-10	0.293	0	0
0	0.9985956	5.2452088e-11	5.3405763e-10	0.292	0	0
0	0.99859375	-2.1775563e-10	4.609426e-10	0.291	0	0
0	0.9985919	3.2107036e-10	6.580353e-10	0.28999996	0	0
0	0.99859	-8.424123e-10	1.0585784e-09	0.289	0	0
0	0.99858814	3.5603842e-10	-5.3723653e-10	0.288	0	0
0	0.9985861	-7.7724455e-10	2.7338665e-10	0.287	0	0
0	0.9985844	-1.0331472e-10	-1.672109e-09	0.286	0	0
0	0.9985825	-2.6543936e-10	-1.6212463e-10	0.28500003	0	0
0	0.9985805	-1.1126201e-10	-3.9100648e-10	0.284	0	0
0	0.99857867	-3.6239625e-10	1.0935466e-09	0.283	0	0
0	0.99857664	2.193451e-10	5.2452087e-10	0.282	0	0
0	0.9985748	-1.1316935e-09	-1.1316935e-09	0.281	0	0
0	0.99857295	-6.5644584e-10	-1.4305115e-10	0.28	0	0
0	0.9985709	3.7670136e-10	-5.2134197e-10	0.279	0	0
0	0.99856895	5.420049e-10	-9.536743e-11	0.278	0	0
0	0.998567	-2.8769176e-10	-1.3987224e-10	0.27700004	0	0
0	0.9985651	-4.641215e-10	7.2161355e-10	0.276	0	0
0	0.9985631	-2.7338665e-10	4.800161e-10	0.275	0	0
0	0.99856126	-4.83195e-10	-4.3551127e-10	0.27399996	0	0
0	0.9985592	-8.106232e-11	-1.2811024e-09	0.27299997	0	0
0	0.99855727	-1.0927518e-09	9.091695e-10	0.27200004	0	0
0	0.9985552	-4.4504803e-10	-3.083547e-10	0.271	0	0
0	0.9985532	-1.0093053e-09	1.27156575e-11	0.27000004	0	0
0	0.99855125	-9.536743e-12	1.4623006e-09	0.26900002	0	0
0	0.99854916	-9.655953e-10	1.3669332e-10	0.26800004	0	0
0	0.9985472	-7.4386597e-10	-4.4504803e-10	0.267	0	0
0	0.9985452	-1.4305114e-11	-1.6212463e-10	0.266	0	0
0	0.99854314	2.5431315e-11	-7.311503e-10	0.265	0	0
0	0.9985411	3.417333e-10	1.5576681e-09	0.26399997	0	0
0	0.99853915	-5.3962074e-10	1.2922287e-09	0.263	0	0
0	0.99853706	8.8214874e-10	4.704793e-10	0.262	0	0
0	0.998535	-1.2111664e-09	-2.4064382e-09	0.26100004	0	0
0	0.9985329	4.9273172e-11	1.748403e-10	0.26	0	0
0	0.9985308	1.1968613e-09	-1.1285146e-10	0.259	0	0
0	0.9985288	-8.742015e-11	3.6557515e-10	0.258	0	0
0	0.9985267	-3.2583872e-10	-1.672109e-09	0.257	0	0
0	0.9985246	-6.4214073e-10	5.2134197e-10	0.256	0	0
0	0.9985225	-5.8650973e-10	5.38826e-10	0.255	0	0
0	0.99852043	-3.7829082e-10	-9.902318e-10	0.254	0	0
0	0.99851835	-6.5167743e-10	6.167094e-10	0.253	0	0
0	0.99851614	1.0792415e-09	8.5194907e-10	0.25200003	0	0
0	0.99851406	-1.4336904e-09	3.306071e-10	0.251	0	0
0	0.99851185	-1.5385946e-09	-9.743373e-10	0.25	0	0
0	0.99850976	5.7220458e-11	1.4781952e-10	0.249	0	0
0	0.9985076	-4.9273174e-10	3.6875408e-10	0.24799998	0	0
0	0.9985054	1.9709269e-10	5.880992e-10	0.247	0	0
0	0.9985033	1.2461344e-09	-7.4386597e-10	0.246	0	0
0	0.99850124	-6.7075095e-10	-9.28243e-10	0.245	0	0
0	0.998499	3.306071e-10	2.9563904e-10	0.24400003	0	0
0	0.9984968	-5.086263e-11	-6.4214073e-10	0.243	0	0
0	0.99849457	1.0792415e-09	9.218852e-10	0.242	0	0
0	0.9984925	-4.3074289e-10	4.1643777e-10	0.241	0	0
0	0.9984902	-2.113978e-10	6.3260397e-10	0.23999998	0	0
0	0.9984879	5.5154165e-10	-2.638499e-10	0.23899998	0	0
0	0.9984858	1.0172526e-10	-4.196167e-10	0.238	0	0
0	0.99848354	1.2238821e-10	6.866455e-10	0.237	0	0
0	0.9984813	-1.1046728e-09	-6.993612e-10	0.23600003	0	0
0	0.99847907	-1.4925003e-09	9.727478e-10	0.235	0	0
0	0.9984767	-6.437302e-10	-1.9073486e-11	0.234	0	0
0	0.9984746	2.6305516e-10	2.861023e-10	0.233	0	0
0	0.9984722	3.496806e-10	-5.722046e-10	0.232	0	0
0	0.99847	-2.559026e-10	1.0458628e-09	0.23099998	0	0
0	0.9984677	-6.9777173e-10	2.8292338e-10	0.23	0	0
0	0.9984654	6.1035155e-10	2.892812e-10	0.229	0	0
0	0.99846315	7.7724455e-10	-3.5921732e-10	0.228	0	0
0	0.9984608	3.639857e-10	1.7166138e-10	0.22700003	0	0
0	0.9984583	6.039937e-11	6.548564e-10	0.226	0	0
0	0.99845606	9.330113e-10	-9.902318e-10	0.225	0	0
0	0.99845374	-1.1603037e-09	1.0204315e-09	0.224	0	0
0	0.9984515	-5.118052e-10	-1.1793773e-09	0.22299998	0	0
0	0.99844897	-2.8610229e-11	-1.5004475e-09	0.222	0	0
0	0.99844664	-6.167094e-10	-1.2365977e-09	0.221	0	0
0	0.99844426	-1.2874603e-10	-1.6848246e-10	0.22	0	0
0	0.9984419	-2.2729238e-09	-1.4019013e-09	0.21900003	0	0
0	0.9984395	6.198883e-11	5.531311e-10	0.218	0	0
0	0.9984371	-1.3875961e-09	-5.3087873e-10	0.217	0	0